
     Program PWSCF v.5.4.0 starts on 18Mar2020 at 21:42:52 

     This program is part of the open-source Quantum ESPRESSO suite
     for quantum simulation of materials; please cite
         "P. Giannozzi et al., J. Phys.:Condens. Matter 21 395502 (2009);
          URL http://www.quantum-espresso.org", 
     in publications or presentations arising from this work. More details at
     http://www.quantum-espresso.org/quote

     Parallel version (MPI & OpenMP), running on      64 processor cores
     Number of MPI processes:                64
     Threads/MPI process:                     1
     K-points division:     npool     =       8
     R & G space division:  proc/nbgrp/npool/nimage =       8
     Waiting for input...
     Reading input from standard input
Warning: card &IONS ignored
Warning: card / ignored
Warning: card &CELL ignored
Warning: card / ignored

     Current dimensions of program PWSCF are:
     Max number of different atomic species (ntypx) = 10
     Max number of k-points (npk) =  40000
     Max angular momentum in pseudopotentials (lmaxx) =  3
     Message from routine setup:
     At least one non s.o. pseudo

     Subspace diagonalization in iterative solution of the eigenvalue problem:
     a serial algorithm will be used

 
     Parallelization info
     --------------------
     sticks:   dense  smooth     PW     G-vecs:    dense   smooth      PW
     Min         407     407    114                15398    15398    2268
     Max         408     408    115                15400    15400    2272
     Sum        3259    3259    913               123189   123189   18149
 

     Title: 
     Sn                                                                         


     bravais-lattice index     =            0
     lattice parameter (alat)  =       8.8927  a.u.
     unit-cell volume          =     497.2569 (a.u.)^3
     number of atoms/cell      =            2
     number of atomic types    =            1
     number of electrons       =        28.00
     number of Kohn-Sham states=           36
     kinetic-energy cutoff     =     150.0000  Ry
     charge density cutoff     =     600.0000  Ry
     convergence threshold     =      1.0E-06
     mixing beta               =       0.7000
     number of iterations used =            8  plain     mixing
     Exchange-correlation      = PBE ( 1  4  3  4 0 0)
     Non magnetic calculation with spin-orbit


     celldm(1)=   8.892665  celldm(2)=   0.000000  celldm(3)=   0.000000
     celldm(4)=   0.000000  celldm(5)=   0.000000  celldm(6)=   0.000000

     crystal axes: (cart. coord. in units of alat)
               a(1) = (   0.000000   0.707107   0.707107 )  
               a(2) = (   0.707107   0.000000   0.707107 )  
               a(3) = (   0.707107   0.707107   0.000000 )  

     reciprocal axes: (cart. coord. in units 2 pi/alat)
               b(1) = ( -0.707107  0.707107  0.707107 )  
               b(2) = (  0.707107 -0.707107  0.707107 )  
               b(3) = (  0.707107  0.707107 -0.707107 )  


     PseudoPot. # 1 for Sn read from file:
     ../PseudopotentialDatabase/Sn_ONCV_PBE-1.0.upf
     MD5 check sum: 4ecdb67ea6112684f1b2ae1cab9d4ca6
     Pseudo is Norm-conserving, Zval = 14.0
     Generated using ONCVPSP code by D. R. Hamann
     Using radial grid of  602 points,  6 beta functions with: 
                l(1) =   0
                l(2) =   0
                l(3) =   1
                l(4) =   1
                l(5) =   2
                l(6) =   2

     atomic species   valence    mass     pseudopotential
        Sn            14.00   118.71000     Sn( 1.00)

     48 Sym. Ops., with inversion, found (24 have fractional translation)


                                    s                        frac. trans.

      isym =  1     identity                                     

 cryst.   s( 1) = (     1          0          0      )
                  (     0          1          0      )
                  (     0          0          1      )

 cart.    s( 1) = (  1.0000000  0.0000000  0.0000000 )
                  (  0.0000000  1.0000000  0.0000000 )
                  (  0.0000000  0.0000000  1.0000000 )


      isym =  2     180 deg rotation - cart. axis [0,0,1]        

 cryst.   s( 2) = (     0          1         -1      )
                  (     1          0         -1      )
                  (     0          0         -1      )

 cart.    s( 2) = ( -1.0000000  0.0000000  0.0000000 )
                  (  0.0000000 -1.0000000  0.0000000 )
                  (  0.0000000  0.0000000  1.0000000 )


      isym =  3     180 deg rotation - cart. axis [0,1,0]        

 cryst.   s( 3) = (     0         -1          1      )
                  (     0         -1          0      )
                  (     1         -1          0      )

 cart.    s( 3) = ( -1.0000000  0.0000000  0.0000000 )
                  (  0.0000000  1.0000000  0.0000000 )
                  (  0.0000000  0.0000000 -1.0000000 )


      isym =  4     180 deg rotation - cart. axis [1,0,0]        

 cryst.   s( 4) = (    -1          0          0      )
                  (    -1          0          1      )
                  (    -1          1          0      )

 cart.    s( 4) = (  1.0000000  0.0000000  0.0000000 )
                  (  0.0000000 -1.0000000  0.0000000 )
                  (  0.0000000  0.0000000 -1.0000000 )


      isym =  5     180 deg rotation - cart. axis [1,1,0]        

 cryst.   s( 5) = (    -1          0          1      )    f =( -0.2500000 )
                  (     0         -1          1      )       ( -0.2500000 )
                  (     0          0          1      )       ( -0.2500000 )

 cart.    s( 5) = (  0.0000000  1.0000000  0.0000000 )    f =( -0.3535534 )
                  (  1.0000000  0.0000000  0.0000000 )       ( -0.3535534 )
                  (  0.0000000  0.0000000 -1.0000000 )       ( -0.3535534 )


      isym =  6     180 deg rotation - cart. axis [1,-1,0]       

 cryst.   s( 6) = (     0         -1          0      )    f =( -0.2500000 )
                  (    -1          0          0      )       ( -0.2500000 )
                  (     0          0         -1      )       ( -0.2500000 )

 cart.    s( 6) = (  0.0000000 -1.0000000  0.0000000 )    f =( -0.3535534 )
                  ( -1.0000000  0.0000000  0.0000000 )       ( -0.3535534 )
                  (  0.0000000  0.0000000 -1.0000000 )       ( -0.3535534 )


      isym =  7      90 deg rotation - cart. axis [0,0,-1]       

 cryst.   s( 7) = (     0          1          0      )    f =( -0.2500000 )
                  (     0          1         -1      )       ( -0.2500000 )
                  (    -1          1          0      )       ( -0.2500000 )

 cart.    s( 7) = (  0.0000000  1.0000000  0.0000000 )    f =( -0.3535534 )
                  ( -1.0000000  0.0000000  0.0000000 )       ( -0.3535534 )
                  (  0.0000000  0.0000000  1.0000000 )       ( -0.3535534 )


      isym =  8      90 deg rotation - cart. axis [0,0,1]        

 cryst.   s( 8) = (     1          0         -1      )    f =( -0.2500000 )
                  (     1          0          0      )       ( -0.2500000 )
                  (     1         -1          0      )       ( -0.2500000 )

 cart.    s( 8) = (  0.0000000 -1.0000000  0.0000000 )    f =( -0.3535534 )
                  (  1.0000000  0.0000000  0.0000000 )       ( -0.3535534 )
                  (  0.0000000  0.0000000  1.0000000 )       ( -0.3535534 )


      isym =  9     180 deg rotation - cart. axis [1,0,1]        

 cryst.   s( 9) = (    -1          1          0      )    f =( -0.2500000 )
                  (     0          1          0      )       ( -0.2500000 )
                  (     0          1         -1      )       ( -0.2500000 )

 cart.    s( 9) = (  0.0000000  0.0000000  1.0000000 )    f =( -0.3535534 )
                  (  0.0000000 -1.0000000  0.0000000 )       ( -0.3535534 )
                  (  1.0000000  0.0000000  0.0000000 )       ( -0.3535534 )


      isym = 10     180 deg rotation - cart. axis [-1,0,1]       

 cryst.   s(10) = (     0          0         -1      )    f =( -0.2500000 )
                  (     0         -1          0      )       ( -0.2500000 )
                  (    -1          0          0      )       ( -0.2500000 )

 cart.    s(10) = (  0.0000000  0.0000000 -1.0000000 )    f =( -0.3535534 )
                  (  0.0000000 -1.0000000  0.0000000 )       ( -0.3535534 )
                  ( -1.0000000  0.0000000  0.0000000 )       ( -0.3535534 )


      isym = 11      90 deg rotation - cart. axis [0,1,0]        

 cryst.   s(11) = (     0          0          1      )    f =( -0.2500000 )
                  (    -1          0          1      )       ( -0.2500000 )
                  (     0         -1          1      )       ( -0.2500000 )

 cart.    s(11) = (  0.0000000  0.0000000  1.0000000 )    f =( -0.3535534 )
                  (  0.0000000  1.0000000  0.0000000 )       ( -0.3535534 )
                  ( -1.0000000  0.0000000  0.0000000 )       ( -0.3535534 )


      isym = 12      90 deg rotation - cart. axis [0,-1,0]       

 cryst.   s(12) = (     1         -1          0      )    f =( -0.2500000 )
                  (     1          0         -1      )       ( -0.2500000 )
                  (     1          0          0      )       ( -0.2500000 )

 cart.    s(12) = (  0.0000000  0.0000000 -1.0000000 )    f =( -0.3535534 )
                  (  0.0000000  1.0000000  0.0000000 )       ( -0.3535534 )
                  (  1.0000000  0.0000000  0.0000000 )       ( -0.3535534 )


      isym = 13     180 deg rotation - cart. axis [0,1,1]        

 cryst.   s(13) = (     1          0          0      )    f =( -0.2500000 )
                  (     1         -1          0      )       ( -0.2500000 )
                  (     1          0         -1      )       ( -0.2500000 )

 cart.    s(13) = ( -1.0000000  0.0000000  0.0000000 )    f =( -0.3535534 )
                  (  0.0000000  0.0000000  1.0000000 )       ( -0.3535534 )
                  (  0.0000000  1.0000000  0.0000000 )       ( -0.3535534 )


      isym = 14     180 deg rotation - cart. axis [0,1,-1]       

 cryst.   s(14) = (    -1          0          0      )    f =( -0.2500000 )
                  (     0          0         -1      )       ( -0.2500000 )
                  (     0         -1          0      )       ( -0.2500000 )

 cart.    s(14) = ( -1.0000000  0.0000000  0.0000000 )    f =( -0.3535534 )
                  (  0.0000000  0.0000000 -1.0000000 )       ( -0.3535534 )
                  (  0.0000000 -1.0000000  0.0000000 )       ( -0.3535534 )


      isym = 15      90 deg rotation - cart. axis [-1,0,0]       

 cryst.   s(15) = (     0         -1          1      )    f =( -0.2500000 )
                  (     0          0          1      )       ( -0.2500000 )
                  (    -1          0          1      )       ( -0.2500000 )

 cart.    s(15) = (  1.0000000  0.0000000  0.0000000 )    f =( -0.3535534 )
                  (  0.0000000  0.0000000  1.0000000 )       ( -0.3535534 )
                  (  0.0000000 -1.0000000  0.0000000 )       ( -0.3535534 )


      isym = 16      90 deg rotation - cart. axis [1,0,0]        

 cryst.   s(16) = (     0          1         -1      )    f =( -0.2500000 )
                  (    -1          1          0      )       ( -0.2500000 )
                  (     0          1          0      )       ( -0.2500000 )

 cart.    s(16) = (  1.0000000  0.0000000  0.0000000 )    f =( -0.3535534 )
                  (  0.0000000  0.0000000 -1.0000000 )       ( -0.3535534 )
                  (  0.0000000  1.0000000  0.0000000 )       ( -0.3535534 )


      isym = 17     120 deg rotation - cart. axis [-1,-1,-1]     

 cryst.   s(17) = (     0          0          1      )
                  (     1          0          0      )
                  (     0          1          0      )

 cart.    s(17) = (  0.0000000  1.0000000  0.0000000 )
                  (  0.0000000  0.0000000  1.0000000 )
                  (  1.0000000  0.0000000  0.0000000 )


      isym = 18     120 deg rotation - cart. axis [-1,1,1]       

 cryst.   s(18) = (     1         -1          0      )
                  (     0         -1          1      )
                  (     0         -1          0      )

 cart.    s(18) = (  0.0000000 -1.0000000  0.0000000 )
                  (  0.0000000  0.0000000  1.0000000 )
                  ( -1.0000000  0.0000000  0.0000000 )


      isym = 19     120 deg rotation - cart. axis [1,1,-1]       

 cryst.   s(19) = (    -1          1          0      )
                  (    -1          0          0      )
                  (    -1          0          1      )

 cart.    s(19) = (  0.0000000  1.0000000  0.0000000 )
                  (  0.0000000  0.0000000 -1.0000000 )
                  ( -1.0000000  0.0000000  0.0000000 )


      isym = 20     120 deg rotation - cart. axis [1,-1,1]       

 cryst.   s(20) = (     0          0         -1      )
                  (     0          1         -1      )
                  (     1          0         -1      )

 cart.    s(20) = (  0.0000000 -1.0000000  0.0000000 )
                  (  0.0000000  0.0000000 -1.0000000 )
                  (  1.0000000  0.0000000  0.0000000 )


      isym = 21     120 deg rotation - cart. axis [1,1,1]        

 cryst.   s(21) = (     0          1          0      )
                  (     0          0          1      )
                  (     1          0          0      )

 cart.    s(21) = (  0.0000000  0.0000000  1.0000000 )
                  (  1.0000000  0.0000000  0.0000000 )
                  (  0.0000000  1.0000000  0.0000000 )


      isym = 22     120 deg rotation - cart. axis [-1,1,-1]      

 cryst.   s(22) = (    -1          0          1      )
                  (    -1          1          0      )
                  (    -1          0          0      )

 cart.    s(22) = (  0.0000000  0.0000000  1.0000000 )
                  ( -1.0000000  0.0000000  0.0000000 )
                  (  0.0000000 -1.0000000  0.0000000 )


      isym = 23     120 deg rotation - cart. axis [1,-1,-1]      

 cryst.   s(23) = (     1          0         -1      )
                  (     0          0         -1      )
                  (     0          1         -1      )

 cart.    s(23) = (  0.0000000  0.0000000 -1.0000000 )
                  ( -1.0000000  0.0000000  0.0000000 )
                  (  0.0000000  1.0000000  0.0000000 )


      isym = 24     120 deg rotation - cart. axis [-1,-1,1]      

 cryst.   s(24) = (     0         -1          0      )
                  (     1         -1          0      )
                  (     0         -1          1      )

 cart.    s(24) = (  0.0000000  0.0000000 -1.0000000 )
                  (  1.0000000  0.0000000  0.0000000 )
                  (  0.0000000 -1.0000000  0.0000000 )


      isym = 25     inversion                                    

 cryst.   s(25) = (    -1          0          0      )    f =( -0.2500000 )
                  (     0         -1          0      )       ( -0.2500000 )
                  (     0          0         -1      )       ( -0.2500000 )

 cart.    s(25) = ( -1.0000000  0.0000000  0.0000000 )    f =( -0.3535534 )
                  (  0.0000000 -1.0000000  0.0000000 )       ( -0.3535534 )
                  (  0.0000000  0.0000000 -1.0000000 )       ( -0.3535534 )


      isym = 26     inv. 180 deg rotation - cart. axis [0,0,1]   

 cryst.   s(26) = (     0         -1          1      )    f =( -0.2500000 )
                  (    -1          0          1      )       ( -0.2500000 )
                  (     0          0          1      )       ( -0.2500000 )

 cart.    s(26) = (  1.0000000  0.0000000  0.0000000 )    f =( -0.3535534 )
                  (  0.0000000  1.0000000  0.0000000 )       ( -0.3535534 )
                  (  0.0000000  0.0000000 -1.0000000 )       ( -0.3535534 )


      isym = 27     inv. 180 deg rotation - cart. axis [0,1,0]   

 cryst.   s(27) = (     0          1         -1      )    f =( -0.2500000 )
                  (     0          1          0      )       ( -0.2500000 )
                  (    -1          1          0      )       ( -0.2500000 )

 cart.    s(27) = (  1.0000000  0.0000000  0.0000000 )    f =( -0.3535534 )
                  (  0.0000000 -1.0000000  0.0000000 )       ( -0.3535534 )
                  (  0.0000000  0.0000000  1.0000000 )       ( -0.3535534 )


      isym = 28     inv. 180 deg rotation - cart. axis [1,0,0]   

 cryst.   s(28) = (     1          0          0      )    f =( -0.2500000 )
                  (     1          0         -1      )       ( -0.2500000 )
                  (     1         -1          0      )       ( -0.2500000 )

 cart.    s(28) = ( -1.0000000  0.0000000  0.0000000 )    f =( -0.3535534 )
                  (  0.0000000  1.0000000  0.0000000 )       ( -0.3535534 )
                  (  0.0000000  0.0000000  1.0000000 )       ( -0.3535534 )


      isym = 29     inv. 180 deg rotation - cart. axis [1,1,0]   

 cryst.   s(29) = (     1          0         -1      )
                  (     0          1         -1      )
                  (     0          0         -1      )

 cart.    s(29) = (  0.0000000 -1.0000000  0.0000000 )
                  ( -1.0000000  0.0000000  0.0000000 )
                  (  0.0000000  0.0000000  1.0000000 )


      isym = 30     inv. 180 deg rotation - cart. axis [1,-1,0]  

 cryst.   s(30) = (     0          1          0      )
                  (     1          0          0      )
                  (     0          0          1      )

 cart.    s(30) = (  0.0000000  1.0000000  0.0000000 )
                  (  1.0000000  0.0000000  0.0000000 )
                  (  0.0000000  0.0000000  1.0000000 )


      isym = 31     inv.  90 deg rotation - cart. axis [0,0,-1]  

 cryst.   s(31) = (     0         -1          0      )
                  (     0         -1          1      )
                  (     1         -1          0      )

 cart.    s(31) = (  0.0000000 -1.0000000  0.0000000 )
                  (  1.0000000  0.0000000  0.0000000 )
                  (  0.0000000  0.0000000 -1.0000000 )


      isym = 32     inv.  90 deg rotation - cart. axis [0,0,1]   

 cryst.   s(32) = (    -1          0          1      )
                  (    -1          0          0      )
                  (    -1          1          0      )

 cart.    s(32) = (  0.0000000  1.0000000  0.0000000 )
                  ( -1.0000000  0.0000000  0.0000000 )
                  (  0.0000000  0.0000000 -1.0000000 )


      isym = 33     inv. 180 deg rotation - cart. axis [1,0,1]   

 cryst.   s(33) = (     1         -1          0      )
                  (     0         -1          0      )
                  (     0         -1          1      )

 cart.    s(33) = (  0.0000000  0.0000000 -1.0000000 )
                  (  0.0000000  1.0000000  0.0000000 )
                  ( -1.0000000  0.0000000  0.0000000 )


      isym = 34     inv. 180 deg rotation - cart. axis [-1,0,1]  

 cryst.   s(34) = (     0          0          1      )
                  (     0          1          0      )
                  (     1          0          0      )

 cart.    s(34) = (  0.0000000  0.0000000  1.0000000 )
                  (  0.0000000  1.0000000  0.0000000 )
                  (  1.0000000  0.0000000  0.0000000 )


      isym = 35     inv.  90 deg rotation - cart. axis [0,1,0]   

 cryst.   s(35) = (     0          0         -1      )
                  (     1          0         -1      )
                  (     0          1         -1      )

 cart.    s(35) = (  0.0000000  0.0000000 -1.0000000 )
                  (  0.0000000 -1.0000000  0.0000000 )
                  (  1.0000000  0.0000000  0.0000000 )


      isym = 36     inv.  90 deg rotation - cart. axis [0,-1,0]  

 cryst.   s(36) = (    -1          1          0      )
                  (    -1          0          1      )
                  (    -1          0          0      )

 cart.    s(36) = (  0.0000000  0.0000000  1.0000000 )
                  (  0.0000000 -1.0000000  0.0000000 )
                  ( -1.0000000  0.0000000  0.0000000 )


      isym = 37     inv. 180 deg rotation - cart. axis [0,1,1]   

 cryst.   s(37) = (    -1          0          0      )
                  (    -1          1          0      )
                  (    -1          0          1      )

 cart.    s(37) = (  1.0000000  0.0000000  0.0000000 )
                  (  0.0000000  0.0000000 -1.0000000 )
                  (  0.0000000 -1.0000000  0.0000000 )


      isym = 38     inv. 180 deg rotation - cart. axis [0,1,-1]  

 cryst.   s(38) = (     1          0          0      )
                  (     0          0          1      )
                  (     0          1          0      )

 cart.    s(38) = (  1.0000000  0.0000000  0.0000000 )
                  (  0.0000000  0.0000000  1.0000000 )
                  (  0.0000000  1.0000000  0.0000000 )


      isym = 39     inv.  90 deg rotation - cart. axis [-1,0,0]  

 cryst.   s(39) = (     0          1         -1      )
                  (     0          0         -1      )
                  (     1          0         -1      )

 cart.    s(39) = ( -1.0000000  0.0000000  0.0000000 )
                  (  0.0000000  0.0000000 -1.0000000 )
                  (  0.0000000  1.0000000  0.0000000 )


      isym = 40     inv.  90 deg rotation - cart. axis [1,0,0]   

 cryst.   s(40) = (     0         -1          1      )
                  (     1         -1          0      )
                  (     0         -1          0      )

 cart.    s(40) = ( -1.0000000  0.0000000  0.0000000 )
                  (  0.0000000  0.0000000  1.0000000 )
                  (  0.0000000 -1.0000000  0.0000000 )


      isym = 41     inv. 120 deg rotation - cart. axis [-1,-1,-1]

 cryst.   s(41) = (     0          0         -1      )    f =( -0.2500000 )
                  (    -1          0          0      )       ( -0.2500000 )
                  (     0         -1          0      )       ( -0.2500000 )

 cart.    s(41) = (  0.0000000 -1.0000000  0.0000000 )    f =( -0.3535534 )
                  (  0.0000000  0.0000000 -1.0000000 )       ( -0.3535534 )
                  ( -1.0000000  0.0000000  0.0000000 )       ( -0.3535534 )


      isym = 42     inv. 120 deg rotation - cart. axis [-1,1,1]  

 cryst.   s(42) = (    -1          1          0      )    f =( -0.2500000 )
                  (     0          1         -1      )       ( -0.2500000 )
                  (     0          1          0      )       ( -0.2500000 )

 cart.    s(42) = (  0.0000000  1.0000000  0.0000000 )    f =( -0.3535534 )
                  (  0.0000000  0.0000000 -1.0000000 )       ( -0.3535534 )
                  (  1.0000000  0.0000000  0.0000000 )       ( -0.3535534 )


      isym = 43     inv. 120 deg rotation - cart. axis [1,1,-1]  

 cryst.   s(43) = (     1         -1          0      )    f =( -0.2500000 )
                  (     1          0          0      )       ( -0.2500000 )
                  (     1          0         -1      )       ( -0.2500000 )

 cart.    s(43) = (  0.0000000 -1.0000000  0.0000000 )    f =( -0.3535534 )
                  (  0.0000000  0.0000000  1.0000000 )       ( -0.3535534 )
                  (  1.0000000  0.0000000  0.0000000 )       ( -0.3535534 )


      isym = 44     inv. 120 deg rotation - cart. axis [1,-1,1]  

 cryst.   s(44) = (     0          0          1      )    f =( -0.2500000 )
                  (     0         -1          1      )       ( -0.2500000 )
                  (    -1          0          1      )       ( -0.2500000 )

 cart.    s(44) = (  0.0000000  1.0000000  0.0000000 )    f =( -0.3535534 )
                  (  0.0000000  0.0000000  1.0000000 )       ( -0.3535534 )
                  ( -1.0000000  0.0000000  0.0000000 )       ( -0.3535534 )


      isym = 45     inv. 120 deg rotation - cart. axis [1,1,1]   

 cryst.   s(45) = (     0         -1          0      )    f =( -0.2500000 )
                  (     0          0         -1      )       ( -0.2500000 )
                  (    -1          0          0      )       ( -0.2500000 )

 cart.    s(45) = (  0.0000000  0.0000000 -1.0000000 )    f =( -0.3535534 )
                  ( -1.0000000  0.0000000  0.0000000 )       ( -0.3535534 )
                  (  0.0000000 -1.0000000  0.0000000 )       ( -0.3535534 )


      isym = 46     inv. 120 deg rotation - cart. axis [-1,1,-1] 

 cryst.   s(46) = (     1          0         -1      )    f =( -0.2500000 )
                  (     1         -1          0      )       ( -0.2500000 )
                  (     1          0          0      )       ( -0.2500000 )

 cart.    s(46) = (  0.0000000  0.0000000 -1.0000000 )    f =( -0.3535534 )
                  (  1.0000000  0.0000000  0.0000000 )       ( -0.3535534 )
                  (  0.0000000  1.0000000  0.0000000 )       ( -0.3535534 )


      isym = 47     inv. 120 deg rotation - cart. axis [1,-1,-1] 

 cryst.   s(47) = (    -1          0          1      )    f =( -0.2500000 )
                  (     0          0          1      )       ( -0.2500000 )
                  (     0         -1          1      )       ( -0.2500000 )

 cart.    s(47) = (  0.0000000  0.0000000  1.0000000 )    f =( -0.3535534 )
                  (  1.0000000  0.0000000  0.0000000 )       ( -0.3535534 )
                  (  0.0000000 -1.0000000  0.0000000 )       ( -0.3535534 )


      isym = 48     inv. 120 deg rotation - cart. axis [-1,-1,1] 

 cryst.   s(48) = (     0          1          0      )    f =( -0.2500000 )
                  (    -1          1          0      )       ( -0.2500000 )
                  (     0          1         -1      )       ( -0.2500000 )

 cart.    s(48) = (  0.0000000  0.0000000  1.0000000 )    f =( -0.3535534 )
                  ( -1.0000000  0.0000000  0.0000000 )       ( -0.3535534 )
                  (  0.0000000  1.0000000  0.0000000 )       ( -0.3535534 )


   Cartesian axes

     site n.     atom                  positions (alat units)
         1           Sn  tau(   1) = (   0.0000000   0.0000000   0.0000000  )
         2           Sn  tau(   2) = (   0.3535534   0.3535534   0.3535534  )

   Crystallographic axes

     site n.     atom                  positions (cryst. coord.)
         1           Sn  tau(   1) = (  0.0000000  0.0000000  0.0000000  )
         2           Sn  tau(   2) = (  0.2500000  0.2500000  0.2500000  )

     number of k points=  2300  gaussian smearing, width (Ry)=  0.0001
                       cart. coord. in units 2pi/alat
        k(    1) = (   0.0000000   0.0000000   0.0000000), wk =   0.0000110
        k(    2) = (   0.0157135   0.0157135  -0.0157135), wk =   0.0000878
        k(    3) = (   0.0314270   0.0314270  -0.0314270), wk =   0.0000878
        k(    4) = (   0.0471405   0.0471405  -0.0471405), wk =   0.0000878
        k(    5) = (   0.0628539   0.0628539  -0.0628539), wk =   0.0000878
        k(    6) = (   0.0785674   0.0785674  -0.0785674), wk =   0.0000878
        k(    7) = (   0.0942809   0.0942809  -0.0942809), wk =   0.0000878
        k(    8) = (   0.1099944   0.1099944  -0.1099944), wk =   0.0000878
        k(    9) = (   0.1257079   0.1257079  -0.1257079), wk =   0.0000878
        k(   10) = (   0.1414214   0.1414214  -0.1414214), wk =   0.0000878
        k(   11) = (   0.1571348   0.1571348  -0.1571348), wk =   0.0000878
        k(   12) = (   0.1728483   0.1728483  -0.1728483), wk =   0.0000878
        k(   13) = (   0.1885618   0.1885618  -0.1885618), wk =   0.0000878
        k(   14) = (   0.2042753   0.2042753  -0.2042753), wk =   0.0000878
        k(   15) = (   0.2199888   0.2199888  -0.2199888), wk =   0.0000878
        k(   16) = (   0.2357023   0.2357023  -0.2357023), wk =   0.0000878
        k(   17) = (   0.2514157   0.2514157  -0.2514157), wk =   0.0000878
        k(   18) = (   0.2671292   0.2671292  -0.2671292), wk =   0.0000878
        k(   19) = (   0.2828427   0.2828427  -0.2828427), wk =   0.0000878
        k(   20) = (   0.2985562   0.2985562  -0.2985562), wk =   0.0000878
        k(   21) = (   0.3142697   0.3142697  -0.3142697), wk =   0.0000878
        k(   22) = (   0.3299832   0.3299832  -0.3299832), wk =   0.0000878
        k(   23) = (   0.3456966   0.3456966  -0.3456966), wk =   0.0000878
        k(   24) = (   0.0314270   0.0000000   0.0000000), wk =   0.0000658
        k(   25) = (   0.0471405   0.0157135  -0.0157135), wk =   0.0002634
        k(   26) = (   0.0628539   0.0314270  -0.0314270), wk =   0.0002634
        k(   27) = (   0.0785674   0.0471405  -0.0471405), wk =   0.0002634
        k(   28) = (   0.0942809   0.0628539  -0.0628539), wk =   0.0002634
        k(   29) = (   0.1099944   0.0785674  -0.0785674), wk =   0.0002634
        k(   30) = (   0.1257079   0.0942809  -0.0942809), wk =   0.0002634
        k(   31) = (   0.1414214   0.1099944  -0.1099944), wk =   0.0002634
        k(   32) = (   0.1571348   0.1257079  -0.1257079), wk =   0.0002634
        k(   33) = (   0.1728483   0.1414214  -0.1414214), wk =   0.0002634
        k(   34) = (   0.1885618   0.1571348  -0.1571348), wk =   0.0002634
        k(   35) = (   0.2042753   0.1728483  -0.1728483), wk =   0.0002634
        k(   36) = (   0.2199888   0.1885618  -0.1885618), wk =   0.0002634
        k(   37) = (   0.2357023   0.2042753  -0.2042753), wk =   0.0002634
        k(   38) = (   0.2514157   0.2199888  -0.2199888), wk =   0.0002634
        k(   39) = (   0.2671292   0.2357023  -0.2357023), wk =   0.0002634
        k(   40) = (   0.2828427   0.2514157  -0.2514157), wk =   0.0002634
        k(   41) = (   0.2985562   0.2671292  -0.2671292), wk =   0.0002634
        k(   42) = (   0.3142697   0.2828427  -0.2828427), wk =   0.0002634
        k(   43) = (   0.3299832   0.2985562  -0.2985562), wk =   0.0002634
        k(   44) = (   0.3456966   0.3142697  -0.3142697), wk =   0.0002634
        k(   45) = (   0.3614101   0.3299832  -0.3299832), wk =   0.0002634
        k(   46) = (  -0.3299832  -0.3614101   0.3614101), wk =   0.0002634
        k(   47) = (  -0.3142697  -0.3456966   0.3456966), wk =   0.0002634
        k(   48) = (  -0.2985562  -0.3299832   0.3299832), wk =   0.0002634
        k(   49) = (  -0.2828427  -0.3142697   0.3142697), wk =   0.0002634
        k(   50) = (  -0.2671292  -0.2985562   0.2985562), wk =   0.0002634
        k(   51) = (  -0.2514157  -0.2828427   0.2828427), wk =   0.0002634
        k(   52) = (  -0.2357023  -0.2671292   0.2671292), wk =   0.0002634
        k(   53) = (  -0.2199888  -0.2514157   0.2514157), wk =   0.0002634
        k(   54) = (  -0.2042753  -0.2357023   0.2357023), wk =   0.0002634
        k(   55) = (  -0.1885618  -0.2199888   0.2199888), wk =   0.0002634
        k(   56) = (  -0.1728483  -0.2042753   0.2042753), wk =   0.0002634
        k(   57) = (  -0.1571348  -0.1885618   0.1885618), wk =   0.0002634
        k(   58) = (  -0.1414214  -0.1728483   0.1728483), wk =   0.0002634
        k(   59) = (  -0.1257079  -0.1571348   0.1571348), wk =   0.0002634
        k(   60) = (  -0.1099944  -0.1414214   0.1414214), wk =   0.0002634
        k(   61) = (  -0.0942809  -0.1257079   0.1257079), wk =   0.0002634
        k(   62) = (  -0.0785674  -0.1099944   0.1099944), wk =   0.0002634
        k(   63) = (  -0.0628539  -0.0942809   0.0942809), wk =   0.0002634
        k(   64) = (  -0.0471405  -0.0785674   0.0785674), wk =   0.0002634
        k(   65) = (  -0.0314270  -0.0628539   0.0628539), wk =   0.0002634
        k(   66) = (  -0.0157135  -0.0471405   0.0471405), wk =   0.0002634
        k(   67) = (  -0.0000000  -0.0314270   0.0314270), wk =   0.0001317
        k(   68) = (   0.0628539   0.0000000   0.0000000), wk =   0.0000658
        k(   69) = (   0.0785674   0.0157135  -0.0157135), wk =   0.0002634
        k(   70) = (   0.0942809   0.0314270  -0.0314270), wk =   0.0002634
        k(   71) = (   0.1099944   0.0471405  -0.0471405), wk =   0.0002634
        k(   72) = (   0.1257079   0.0628539  -0.0628539), wk =   0.0002634
        k(   73) = (   0.1414214   0.0785674  -0.0785674), wk =   0.0002634
        k(   74) = (   0.1571348   0.0942809  -0.0942809), wk =   0.0002634
        k(   75) = (   0.1728483   0.1099944  -0.1099944), wk =   0.0002634
        k(   76) = (   0.1885618   0.1257079  -0.1257079), wk =   0.0002634
        k(   77) = (   0.2042753   0.1414214  -0.1414214), wk =   0.0002634
        k(   78) = (   0.2199888   0.1571348  -0.1571348), wk =   0.0002634
        k(   79) = (   0.2357023   0.1728483  -0.1728483), wk =   0.0002634
        k(   80) = (   0.2514157   0.1885618  -0.1885618), wk =   0.0002634
        k(   81) = (   0.2671292   0.2042753  -0.2042753), wk =   0.0002634
        k(   82) = (   0.2828427   0.2199888  -0.2199888), wk =   0.0002634
        k(   83) = (   0.2985562   0.2357023  -0.2357023), wk =   0.0002634
        k(   84) = (   0.3142697   0.2514157  -0.2514157), wk =   0.0002634
        k(   85) = (   0.3299832   0.2671292  -0.2671292), wk =   0.0002634
        k(   86) = (   0.3456966   0.2828427  -0.2828427), wk =   0.0002634
        k(   87) = (   0.3614101   0.2985562  -0.2985562), wk =   0.0002634
        k(   88) = (   0.3771236   0.3142697  -0.3142697), wk =   0.0002634
        k(   89) = (  -0.3142697  -0.3771236   0.3771236), wk =   0.0002634
        k(   90) = (  -0.2985562  -0.3614101   0.3614101), wk =   0.0002634
        k(   91) = (  -0.2828427  -0.3456966   0.3456966), wk =   0.0002634
        k(   92) = (  -0.2671292  -0.3299832   0.3299832), wk =   0.0002634
        k(   93) = (  -0.2514157  -0.3142697   0.3142697), wk =   0.0002634
        k(   94) = (  -0.2357023  -0.2985562   0.2985562), wk =   0.0002634
        k(   95) = (  -0.2199888  -0.2828427   0.2828427), wk =   0.0002634
        k(   96) = (  -0.2042753  -0.2671292   0.2671292), wk =   0.0002634
        k(   97) = (  -0.1885618  -0.2514157   0.2514157), wk =   0.0002634
        k(   98) = (  -0.1728483  -0.2357023   0.2357023), wk =   0.0002634
        k(   99) = (  -0.1571348  -0.2199888   0.2199888), wk =   0.0002634
        k(  100) = (  -0.1414214  -0.2042753   0.2042753), wk =   0.0002634
        k(  101) = (  -0.1257079  -0.1885618   0.1885618), wk =   0.0002634
        k(  102) = (  -0.1099944  -0.1728483   0.1728483), wk =   0.0002634
        k(  103) = (  -0.0942809  -0.1571348   0.1571348), wk =   0.0002634
        k(  104) = (  -0.0785674  -0.1414214   0.1414214), wk =   0.0002634
        k(  105) = (  -0.0628539  -0.1257079   0.1257079), wk =   0.0002634
        k(  106) = (  -0.0471405  -0.1099944   0.1099944), wk =   0.0002634
        k(  107) = (  -0.0314270  -0.0942809   0.0942809), wk =   0.0002634
        k(  108) = (  -0.0157135  -0.0785674   0.0785674), wk =   0.0002634
        k(  109) = (   0.0000000  -0.0628539   0.0628539), wk =   0.0001317
        k(  110) = (   0.0942809   0.0000000   0.0000000), wk =   0.0000658
        k(  111) = (   0.1099944   0.0157135  -0.0157135), wk =   0.0002634
        k(  112) = (   0.1257079   0.0314270  -0.0314270), wk =   0.0002634
        k(  113) = (   0.1414214   0.0471405  -0.0471405), wk =   0.0002634
        k(  114) = (   0.1571348   0.0628539  -0.0628539), wk =   0.0002634
        k(  115) = (   0.1728483   0.0785674  -0.0785674), wk =   0.0002634
        k(  116) = (   0.1885618   0.0942809  -0.0942809), wk =   0.0002634
        k(  117) = (   0.2042753   0.1099944  -0.1099944), wk =   0.0002634
        k(  118) = (   0.2199888   0.1257079  -0.1257079), wk =   0.0002634
        k(  119) = (   0.2357023   0.1414214  -0.1414214), wk =   0.0002634
        k(  120) = (   0.2514157   0.1571348  -0.1571348), wk =   0.0002634
        k(  121) = (   0.2671292   0.1728483  -0.1728483), wk =   0.0002634
        k(  122) = (   0.2828427   0.1885618  -0.1885618), wk =   0.0002634
        k(  123) = (   0.2985562   0.2042753  -0.2042753), wk =   0.0002634
        k(  124) = (   0.3142697   0.2199888  -0.2199888), wk =   0.0002634
        k(  125) = (   0.3299832   0.2357023  -0.2357023), wk =   0.0002634
        k(  126) = (   0.3456966   0.2514157  -0.2514157), wk =   0.0002634
        k(  127) = (   0.3614101   0.2671292  -0.2671292), wk =   0.0002634
        k(  128) = (   0.3771236   0.2828427  -0.2828427), wk =   0.0002634
        k(  129) = (   0.3928371   0.2985562  -0.2985562), wk =   0.0002634
        k(  130) = (  -0.2985562  -0.3928371   0.3928371), wk =   0.0002634
        k(  131) = (  -0.2828427  -0.3771236   0.3771236), wk =   0.0002634
        k(  132) = (  -0.2671292  -0.3614101   0.3614101), wk =   0.0002634
        k(  133) = (  -0.2514157  -0.3456966   0.3456966), wk =   0.0002634
        k(  134) = (  -0.2357023  -0.3299832   0.3299832), wk =   0.0002634
        k(  135) = (  -0.2199888  -0.3142697   0.3142697), wk =   0.0002634
        k(  136) = (  -0.2042753  -0.2985562   0.2985562), wk =   0.0002634
        k(  137) = (  -0.1885618  -0.2828427   0.2828427), wk =   0.0002634
        k(  138) = (  -0.1728483  -0.2671292   0.2671292), wk =   0.0002634
        k(  139) = (  -0.1571348  -0.2514157   0.2514157), wk =   0.0002634
        k(  140) = (  -0.1414214  -0.2357023   0.2357023), wk =   0.0002634
        k(  141) = (  -0.1257079  -0.2199888   0.2199888), wk =   0.0002634
        k(  142) = (  -0.1099944  -0.2042753   0.2042753), wk =   0.0002634
        k(  143) = (  -0.0942809  -0.1885618   0.1885618), wk =   0.0002634
        k(  144) = (  -0.0785674  -0.1728483   0.1728483), wk =   0.0002634
        k(  145) = (  -0.0628539  -0.1571348   0.1571348), wk =   0.0002634
        k(  146) = (  -0.0471405  -0.1414214   0.1414214), wk =   0.0002634
        k(  147) = (  -0.0314270  -0.1257079   0.1257079), wk =   0.0002634
        k(  148) = (  -0.0157135  -0.1099944   0.1099944), wk =   0.0002634
        k(  149) = (   0.0000000  -0.0942809   0.0942809), wk =   0.0001317
        k(  150) = (   0.1257079   0.0000000   0.0000000), wk =   0.0000658
        k(  151) = (   0.1414214   0.0157135  -0.0157135), wk =   0.0002634
        k(  152) = (   0.1571348   0.0314270  -0.0314270), wk =   0.0002634
        k(  153) = (   0.1728483   0.0471405  -0.0471405), wk =   0.0002634
        k(  154) = (   0.1885618   0.0628539  -0.0628539), wk =   0.0002634
        k(  155) = (   0.2042753   0.0785674  -0.0785674), wk =   0.0002634
        k(  156) = (   0.2199888   0.0942809  -0.0942809), wk =   0.0002634
        k(  157) = (   0.2357023   0.1099944  -0.1099944), wk =   0.0002634
        k(  158) = (   0.2514157   0.1257079  -0.1257079), wk =   0.0002634
        k(  159) = (   0.2671292   0.1414214  -0.1414214), wk =   0.0002634
        k(  160) = (   0.2828427   0.1571348  -0.1571348), wk =   0.0002634
        k(  161) = (   0.2985562   0.1728483  -0.1728483), wk =   0.0002634
        k(  162) = (   0.3142697   0.1885618  -0.1885618), wk =   0.0002634
        k(  163) = (   0.3299832   0.2042753  -0.2042753), wk =   0.0002634
        k(  164) = (   0.3456966   0.2199888  -0.2199888), wk =   0.0002634
        k(  165) = (   0.3614101   0.2357023  -0.2357023), wk =   0.0002634
        k(  166) = (   0.3771236   0.2514157  -0.2514157), wk =   0.0002634
        k(  167) = (   0.3928371   0.2671292  -0.2671292), wk =   0.0002634
        k(  168) = (   0.4085506   0.2828427  -0.2828427), wk =   0.0002634
        k(  169) = (  -0.2828427  -0.4085506   0.4085506), wk =   0.0002634
        k(  170) = (  -0.2671292  -0.3928371   0.3928371), wk =   0.0002634
        k(  171) = (  -0.2514157  -0.3771236   0.3771236), wk =   0.0002634
        k(  172) = (  -0.2357023  -0.3614101   0.3614101), wk =   0.0002634
        k(  173) = (  -0.2199888  -0.3456966   0.3456966), wk =   0.0002634
        k(  174) = (  -0.2042753  -0.3299832   0.3299832), wk =   0.0002634
        k(  175) = (  -0.1885618  -0.3142697   0.3142697), wk =   0.0002634
        k(  176) = (  -0.1728483  -0.2985562   0.2985562), wk =   0.0002634
        k(  177) = (  -0.1571348  -0.2828427   0.2828427), wk =   0.0002634
        k(  178) = (  -0.1414214  -0.2671292   0.2671292), wk =   0.0002634
        k(  179) = (  -0.1257079  -0.2514157   0.2514157), wk =   0.0002634
        k(  180) = (  -0.1099944  -0.2357023   0.2357023), wk =   0.0002634
        k(  181) = (  -0.0942809  -0.2199888   0.2199888), wk =   0.0002634
        k(  182) = (  -0.0785674  -0.2042753   0.2042753), wk =   0.0002634
        k(  183) = (  -0.0628539  -0.1885618   0.1885618), wk =   0.0002634
        k(  184) = (  -0.0471405  -0.1728483   0.1728483), wk =   0.0002634
        k(  185) = (  -0.0314270  -0.1571348   0.1571348), wk =   0.0002634
        k(  186) = (  -0.0157135  -0.1414214   0.1414214), wk =   0.0002634
        k(  187) = (  -0.0000000  -0.1257079   0.1257079), wk =   0.0001317
        k(  188) = (   0.1571348   0.0000000   0.0000000), wk =   0.0000658
        k(  189) = (   0.1728483   0.0157135  -0.0157135), wk =   0.0002634
        k(  190) = (   0.1885618   0.0314270  -0.0314270), wk =   0.0002634
        k(  191) = (   0.2042753   0.0471405  -0.0471405), wk =   0.0002634
        k(  192) = (   0.2199888   0.0628539  -0.0628539), wk =   0.0002634
        k(  193) = (   0.2357023   0.0785674  -0.0785674), wk =   0.0002634
        k(  194) = (   0.2514157   0.0942809  -0.0942809), wk =   0.0002634
        k(  195) = (   0.2671292   0.1099944  -0.1099944), wk =   0.0002634
        k(  196) = (   0.2828427   0.1257079  -0.1257079), wk =   0.0002634
        k(  197) = (   0.2985562   0.1414214  -0.1414214), wk =   0.0002634
        k(  198) = (   0.3142697   0.1571348  -0.1571348), wk =   0.0002634
        k(  199) = (   0.3299832   0.1728483  -0.1728483), wk =   0.0002634
        k(  200) = (   0.3456966   0.1885618  -0.1885618), wk =   0.0002634
        k(  201) = (   0.3614101   0.2042753  -0.2042753), wk =   0.0002634
        k(  202) = (   0.3771236   0.2199888  -0.2199888), wk =   0.0002634
        k(  203) = (   0.3928371   0.2357023  -0.2357023), wk =   0.0002634
        k(  204) = (   0.4085506   0.2514157  -0.2514157), wk =   0.0002634
        k(  205) = (   0.4242641   0.2671292  -0.2671292), wk =   0.0002634
        k(  206) = (  -0.2671292  -0.4242641   0.4242641), wk =   0.0002634
        k(  207) = (  -0.2514157  -0.4085506   0.4085506), wk =   0.0002634
        k(  208) = (  -0.2357023  -0.3928371   0.3928371), wk =   0.0002634
        k(  209) = (  -0.2199888  -0.3771236   0.3771236), wk =   0.0002634
        k(  210) = (  -0.2042753  -0.3614101   0.3614101), wk =   0.0002634
        k(  211) = (  -0.1885618  -0.3456966   0.3456966), wk =   0.0002634
        k(  212) = (  -0.1728483  -0.3299832   0.3299832), wk =   0.0002634
        k(  213) = (  -0.1571348  -0.3142697   0.3142697), wk =   0.0002634
        k(  214) = (  -0.1414214  -0.2985562   0.2985562), wk =   0.0002634
        k(  215) = (  -0.1257079  -0.2828427   0.2828427), wk =   0.0002634
        k(  216) = (  -0.1099944  -0.2671292   0.2671292), wk =   0.0002634
        k(  217) = (  -0.0942809  -0.2514157   0.2514157), wk =   0.0002634
        k(  218) = (  -0.0785674  -0.2357023   0.2357023), wk =   0.0002634
        k(  219) = (  -0.0628539  -0.2199888   0.2199888), wk =   0.0002634
        k(  220) = (  -0.0471405  -0.2042753   0.2042753), wk =   0.0002634
        k(  221) = (  -0.0314270  -0.1885618   0.1885618), wk =   0.0002634
        k(  222) = (  -0.0157135  -0.1728483   0.1728483), wk =   0.0002634
        k(  223) = (  -0.0000000  -0.1571348   0.1571348), wk =   0.0001317
        k(  224) = (   0.1885618   0.0000000   0.0000000), wk =   0.0000658
        k(  225) = (   0.2042753   0.0157135  -0.0157135), wk =   0.0002634
        k(  226) = (   0.2199888   0.0314270  -0.0314270), wk =   0.0002634
        k(  227) = (   0.2357023   0.0471405  -0.0471405), wk =   0.0002634
        k(  228) = (   0.2514157   0.0628539  -0.0628539), wk =   0.0002634
        k(  229) = (   0.2671292   0.0785674  -0.0785674), wk =   0.0002634
        k(  230) = (   0.2828427   0.0942809  -0.0942809), wk =   0.0002634
        k(  231) = (   0.2985562   0.1099944  -0.1099944), wk =   0.0002634
        k(  232) = (   0.3142697   0.1257079  -0.1257079), wk =   0.0002634
        k(  233) = (   0.3299832   0.1414214  -0.1414214), wk =   0.0002634
        k(  234) = (   0.3456966   0.1571348  -0.1571348), wk =   0.0002634
        k(  235) = (   0.3614101   0.1728483  -0.1728483), wk =   0.0002634
        k(  236) = (   0.3771236   0.1885618  -0.1885618), wk =   0.0002634
        k(  237) = (   0.3928371   0.2042753  -0.2042753), wk =   0.0002634
        k(  238) = (   0.4085506   0.2199888  -0.2199888), wk =   0.0002634
        k(  239) = (   0.4242641   0.2357023  -0.2357023), wk =   0.0002634
        k(  240) = (   0.4399776   0.2514157  -0.2514157), wk =   0.0002634
        k(  241) = (  -0.2514157  -0.4399776   0.4399776), wk =   0.0002634
        k(  242) = (  -0.2357023  -0.4242641   0.4242641), wk =   0.0002634
        k(  243) = (  -0.2199888  -0.4085506   0.4085506), wk =   0.0002634
        k(  244) = (  -0.2042753  -0.3928371   0.3928371), wk =   0.0002634
        k(  245) = (  -0.1885618  -0.3771236   0.3771236), wk =   0.0002634
        k(  246) = (  -0.1728483  -0.3614101   0.3614101), wk =   0.0002634
        k(  247) = (  -0.1571348  -0.3456966   0.3456966), wk =   0.0002634
        k(  248) = (  -0.1414214  -0.3299832   0.3299832), wk =   0.0002634
        k(  249) = (  -0.1257079  -0.3142697   0.3142697), wk =   0.0002634
        k(  250) = (  -0.1099944  -0.2985562   0.2985562), wk =   0.0002634
        k(  251) = (  -0.0942809  -0.2828427   0.2828427), wk =   0.0002634
        k(  252) = (  -0.0785674  -0.2671292   0.2671292), wk =   0.0002634
        k(  253) = (  -0.0628539  -0.2514157   0.2514157), wk =   0.0002634
        k(  254) = (  -0.0471405  -0.2357023   0.2357023), wk =   0.0002634
        k(  255) = (  -0.0314270  -0.2199888   0.2199888), wk =   0.0002634
        k(  256) = (  -0.0157135  -0.2042753   0.2042753), wk =   0.0002634
        k(  257) = (   0.0000000  -0.1885618   0.1885618), wk =   0.0001317
        k(  258) = (   0.2199888   0.0000000   0.0000000), wk =   0.0000658
        k(  259) = (   0.2357023   0.0157135  -0.0157135), wk =   0.0002634
        k(  260) = (   0.2514157   0.0314270  -0.0314270), wk =   0.0002634
        k(  261) = (   0.2671292   0.0471405  -0.0471405), wk =   0.0002634
        k(  262) = (   0.2828427   0.0628539  -0.0628539), wk =   0.0002634
        k(  263) = (   0.2985562   0.0785674  -0.0785674), wk =   0.0002634
        k(  264) = (   0.3142697   0.0942809  -0.0942809), wk =   0.0002634
        k(  265) = (   0.3299832   0.1099944  -0.1099944), wk =   0.0002634
        k(  266) = (   0.3456966   0.1257079  -0.1257079), wk =   0.0002634
        k(  267) = (   0.3614101   0.1414214  -0.1414214), wk =   0.0002634
        k(  268) = (   0.3771236   0.1571348  -0.1571348), wk =   0.0002634
        k(  269) = (   0.3928371   0.1728483  -0.1728483), wk =   0.0002634
        k(  270) = (   0.4085506   0.1885618  -0.1885618), wk =   0.0002634
        k(  271) = (   0.4242641   0.2042753  -0.2042753), wk =   0.0002634
        k(  272) = (   0.4399776   0.2199888  -0.2199888), wk =   0.0002634
        k(  273) = (   0.4556910   0.2357023  -0.2357023), wk =   0.0002634
        k(  274) = (  -0.2357023  -0.4556910   0.4556910), wk =   0.0002634
        k(  275) = (  -0.2199888  -0.4399776   0.4399776), wk =   0.0002634
        k(  276) = (  -0.2042753  -0.4242641   0.4242641), wk =   0.0002634
        k(  277) = (  -0.1885618  -0.4085506   0.4085506), wk =   0.0002634
        k(  278) = (  -0.1728483  -0.3928371   0.3928371), wk =   0.0002634
        k(  279) = (  -0.1571348  -0.3771236   0.3771236), wk =   0.0002634
        k(  280) = (  -0.1414214  -0.3614101   0.3614101), wk =   0.0002634
        k(  281) = (  -0.1257079  -0.3456966   0.3456966), wk =   0.0002634
        k(  282) = (  -0.1099944  -0.3299832   0.3299832), wk =   0.0002634
        k(  283) = (  -0.0942809  -0.3142697   0.3142697), wk =   0.0002634
        k(  284) = (  -0.0785674  -0.2985562   0.2985562), wk =   0.0002634
        k(  285) = (  -0.0628539  -0.2828427   0.2828427), wk =   0.0002634
        k(  286) = (  -0.0471405  -0.2671292   0.2671292), wk =   0.0002634
        k(  287) = (  -0.0314270  -0.2514157   0.2514157), wk =   0.0002634
        k(  288) = (  -0.0157135  -0.2357023   0.2357023), wk =   0.0002634
        k(  289) = (   0.0000000  -0.2199888   0.2199888), wk =   0.0001317
        k(  290) = (   0.2514157   0.0000000   0.0000000), wk =   0.0000658
        k(  291) = (   0.2671292   0.0157135  -0.0157135), wk =   0.0002634
        k(  292) = (   0.2828427   0.0314270  -0.0314270), wk =   0.0002634
        k(  293) = (   0.2985562   0.0471405  -0.0471405), wk =   0.0002634
        k(  294) = (   0.3142697   0.0628539  -0.0628539), wk =   0.0002634
        k(  295) = (   0.3299832   0.0785674  -0.0785674), wk =   0.0002634
        k(  296) = (   0.3456966   0.0942809  -0.0942809), wk =   0.0002634
        k(  297) = (   0.3614101   0.1099944  -0.1099944), wk =   0.0002634
        k(  298) = (   0.3771236   0.1257079  -0.1257079), wk =   0.0002634
        k(  299) = (   0.3928371   0.1414214  -0.1414214), wk =   0.0002634
        k(  300) = (   0.4085506   0.1571348  -0.1571348), wk =   0.0002634
        k(  301) = (   0.4242641   0.1728483  -0.1728483), wk =   0.0002634
        k(  302) = (   0.4399776   0.1885618  -0.1885618), wk =   0.0002634
        k(  303) = (   0.4556910   0.2042753  -0.2042753), wk =   0.0002634
        k(  304) = (   0.4714045   0.2199888  -0.2199888), wk =   0.0002634
        k(  305) = (  -0.2199888  -0.4714045   0.4714045), wk =   0.0002634
        k(  306) = (  -0.2042753  -0.4556910   0.4556910), wk =   0.0002634
        k(  307) = (  -0.1885618  -0.4399776   0.4399776), wk =   0.0002634
        k(  308) = (  -0.1728483  -0.4242641   0.4242641), wk =   0.0002634
        k(  309) = (  -0.1571348  -0.4085506   0.4085506), wk =   0.0002634
        k(  310) = (  -0.1414214  -0.3928371   0.3928371), wk =   0.0002634
        k(  311) = (  -0.1257079  -0.3771236   0.3771236), wk =   0.0002634
        k(  312) = (  -0.1099944  -0.3614101   0.3614101), wk =   0.0002634
        k(  313) = (  -0.0942809  -0.3456966   0.3456966), wk =   0.0002634
        k(  314) = (  -0.0785674  -0.3299832   0.3299832), wk =   0.0002634
        k(  315) = (  -0.0628539  -0.3142697   0.3142697), wk =   0.0002634
        k(  316) = (  -0.0471405  -0.2985562   0.2985562), wk =   0.0002634
        k(  317) = (  -0.0314270  -0.2828427   0.2828427), wk =   0.0002634
        k(  318) = (  -0.0157135  -0.2671292   0.2671292), wk =   0.0002634
        k(  319) = (  -0.0000000  -0.2514157   0.2514157), wk =   0.0001317
        k(  320) = (   0.2828427   0.0000000   0.0000000), wk =   0.0000658
        k(  321) = (   0.2985562   0.0157135  -0.0157135), wk =   0.0002634
        k(  322) = (   0.3142697   0.0314270  -0.0314270), wk =   0.0002634
        k(  323) = (   0.3299832   0.0471405  -0.0471405), wk =   0.0002634
        k(  324) = (   0.3456966   0.0628539  -0.0628539), wk =   0.0002634
        k(  325) = (   0.3614101   0.0785674  -0.0785674), wk =   0.0002634
        k(  326) = (   0.3771236   0.0942809  -0.0942809), wk =   0.0002634
        k(  327) = (   0.3928371   0.1099944  -0.1099944), wk =   0.0002634
        k(  328) = (   0.4085506   0.1257079  -0.1257079), wk =   0.0002634
        k(  329) = (   0.4242641   0.1414214  -0.1414214), wk =   0.0002634
        k(  330) = (   0.4399776   0.1571348  -0.1571348), wk =   0.0002634
        k(  331) = (   0.4556910   0.1728483  -0.1728483), wk =   0.0002634
        k(  332) = (   0.4714045   0.1885618  -0.1885618), wk =   0.0002634
        k(  333) = (   0.4871180   0.2042753  -0.2042753), wk =   0.0002634
        k(  334) = (  -0.2042753  -0.4871180   0.4871180), wk =   0.0002634
        k(  335) = (  -0.1885618  -0.4714045   0.4714045), wk =   0.0002634
        k(  336) = (  -0.1728483  -0.4556910   0.4556910), wk =   0.0002634
        k(  337) = (  -0.1571348  -0.4399776   0.4399776), wk =   0.0002634
        k(  338) = (  -0.1414214  -0.4242641   0.4242641), wk =   0.0002634
        k(  339) = (  -0.1257079  -0.4085506   0.4085506), wk =   0.0002634
        k(  340) = (  -0.1099944  -0.3928371   0.3928371), wk =   0.0002634
        k(  341) = (  -0.0942809  -0.3771236   0.3771236), wk =   0.0002634
        k(  342) = (  -0.0785674  -0.3614101   0.3614101), wk =   0.0002634
        k(  343) = (  -0.0628539  -0.3456966   0.3456966), wk =   0.0002634
        k(  344) = (  -0.0471405  -0.3299832   0.3299832), wk =   0.0002634
        k(  345) = (  -0.0314270  -0.3142697   0.3142697), wk =   0.0002634
        k(  346) = (  -0.0157135  -0.2985562   0.2985562), wk =   0.0002634
        k(  347) = (   0.0000000  -0.2828427   0.2828427), wk =   0.0001317
        k(  348) = (   0.3142697   0.0000000   0.0000000), wk =   0.0000658
        k(  349) = (   0.3299832   0.0157135  -0.0157135), wk =   0.0002634
        k(  350) = (   0.3456966   0.0314270  -0.0314270), wk =   0.0002634
        k(  351) = (   0.3614101   0.0471405  -0.0471405), wk =   0.0002634
        k(  352) = (   0.3771236   0.0628539  -0.0628539), wk =   0.0002634
        k(  353) = (   0.3928371   0.0785674  -0.0785674), wk =   0.0002634
        k(  354) = (   0.4085506   0.0942809  -0.0942809), wk =   0.0002634
        k(  355) = (   0.4242641   0.1099944  -0.1099944), wk =   0.0002634
        k(  356) = (   0.4399776   0.1257079  -0.1257079), wk =   0.0002634
        k(  357) = (   0.4556910   0.1414214  -0.1414214), wk =   0.0002634
        k(  358) = (   0.4714045   0.1571348  -0.1571348), wk =   0.0002634
        k(  359) = (   0.4871180   0.1728483  -0.1728483), wk =   0.0002634
        k(  360) = (   0.5028315   0.1885618  -0.1885618), wk =   0.0002634
        k(  361) = (  -0.1885618  -0.5028315   0.5028315), wk =   0.0002634
        k(  362) = (  -0.1728483  -0.4871180   0.4871180), wk =   0.0002634
        k(  363) = (  -0.1571348  -0.4714045   0.4714045), wk =   0.0002634
        k(  364) = (  -0.1414214  -0.4556910   0.4556910), wk =   0.0002634
        k(  365) = (  -0.1257079  -0.4399776   0.4399776), wk =   0.0002634
        k(  366) = (  -0.1099944  -0.4242641   0.4242641), wk =   0.0002634
        k(  367) = (  -0.0942809  -0.4085506   0.4085506), wk =   0.0002634
        k(  368) = (  -0.0785674  -0.3928371   0.3928371), wk =   0.0002634
        k(  369) = (  -0.0628539  -0.3771236   0.3771236), wk =   0.0002634
        k(  370) = (  -0.0471405  -0.3614101   0.3614101), wk =   0.0002634
        k(  371) = (  -0.0314270  -0.3456966   0.3456966), wk =   0.0002634
        k(  372) = (  -0.0157135  -0.3299832   0.3299832), wk =   0.0002634
        k(  373) = (   0.0000000  -0.3142697   0.3142697), wk =   0.0001317
        k(  374) = (   0.3456966   0.0000000   0.0000000), wk =   0.0000658
        k(  375) = (   0.3614101   0.0157135  -0.0157135), wk =   0.0002634
        k(  376) = (   0.3771236   0.0314270  -0.0314270), wk =   0.0002634
        k(  377) = (   0.3928371   0.0471405  -0.0471405), wk =   0.0002634
        k(  378) = (   0.4085506   0.0628539  -0.0628539), wk =   0.0002634
        k(  379) = (   0.4242641   0.0785674  -0.0785674), wk =   0.0002634
        k(  380) = (   0.4399776   0.0942809  -0.0942809), wk =   0.0002634
        k(  381) = (   0.4556910   0.1099944  -0.1099944), wk =   0.0002634
        k(  382) = (   0.4714045   0.1257079  -0.1257079), wk =   0.0002634
        k(  383) = (   0.4871180   0.1414214  -0.1414214), wk =   0.0002634
        k(  384) = (   0.5028315   0.1571348  -0.1571348), wk =   0.0002634
        k(  385) = (   0.5185450   0.1728483  -0.1728483), wk =   0.0002634
        k(  386) = (  -0.1728483  -0.5185450   0.5185450), wk =   0.0002634
        k(  387) = (  -0.1571348  -0.5028315   0.5028315), wk =   0.0002634
        k(  388) = (  -0.1414214  -0.4871180   0.4871180), wk =   0.0002634
        k(  389) = (  -0.1257079  -0.4714045   0.4714045), wk =   0.0002634
        k(  390) = (  -0.1099944  -0.4556910   0.4556910), wk =   0.0002634
        k(  391) = (  -0.0942809  -0.4399776   0.4399776), wk =   0.0002634
        k(  392) = (  -0.0785674  -0.4242641   0.4242641), wk =   0.0002634
        k(  393) = (  -0.0628539  -0.4085506   0.4085506), wk =   0.0002634
        k(  394) = (  -0.0471405  -0.3928371   0.3928371), wk =   0.0002634
        k(  395) = (  -0.0314270  -0.3771236   0.3771236), wk =   0.0002634
        k(  396) = (  -0.0157135  -0.3614101   0.3614101), wk =   0.0002634
        k(  397) = (  -0.0000000  -0.3456966   0.3456966), wk =   0.0001317
        k(  398) = (   0.3771236   0.0000000   0.0000000), wk =   0.0000658
        k(  399) = (   0.3928371   0.0157135  -0.0157135), wk =   0.0002634
        k(  400) = (   0.4085506   0.0314270  -0.0314270), wk =   0.0002634
        k(  401) = (   0.4242641   0.0471405  -0.0471405), wk =   0.0002634
        k(  402) = (   0.4399776   0.0628539  -0.0628539), wk =   0.0002634
        k(  403) = (   0.4556910   0.0785674  -0.0785674), wk =   0.0002634
        k(  404) = (   0.4714045   0.0942809  -0.0942809), wk =   0.0002634
        k(  405) = (   0.4871180   0.1099944  -0.1099944), wk =   0.0002634
        k(  406) = (   0.5028315   0.1257079  -0.1257079), wk =   0.0002634
        k(  407) = (   0.5185450   0.1414214  -0.1414214), wk =   0.0002634
        k(  408) = (   0.5342585   0.1571348  -0.1571348), wk =   0.0002634
        k(  409) = (  -0.1571348  -0.5342585   0.5342585), wk =   0.0002634
        k(  410) = (  -0.1414214  -0.5185450   0.5185450), wk =   0.0002634
        k(  411) = (  -0.1257079  -0.5028315   0.5028315), wk =   0.0002634
        k(  412) = (  -0.1099944  -0.4871180   0.4871180), wk =   0.0002634
        k(  413) = (  -0.0942809  -0.4714045   0.4714045), wk =   0.0002634
        k(  414) = (  -0.0785674  -0.4556910   0.4556910), wk =   0.0002634
        k(  415) = (  -0.0628539  -0.4399776   0.4399776), wk =   0.0002634
        k(  416) = (  -0.0471405  -0.4242641   0.4242641), wk =   0.0002634
        k(  417) = (  -0.0314270  -0.4085506   0.4085506), wk =   0.0002634
        k(  418) = (  -0.0157135  -0.3928371   0.3928371), wk =   0.0002634
        k(  419) = (  -0.0000000  -0.3771236   0.3771236), wk =   0.0001317
        k(  420) = (   0.4085506   0.0000000   0.0000000), wk =   0.0000658
        k(  421) = (   0.4242641   0.0157135  -0.0157135), wk =   0.0002634
        k(  422) = (   0.4399776   0.0314270  -0.0314270), wk =   0.0002634
        k(  423) = (   0.4556910   0.0471405  -0.0471405), wk =   0.0002634
        k(  424) = (   0.4714045   0.0628539  -0.0628539), wk =   0.0002634
        k(  425) = (   0.4871180   0.0785674  -0.0785674), wk =   0.0002634
        k(  426) = (   0.5028315   0.0942809  -0.0942809), wk =   0.0002634
        k(  427) = (   0.5185450   0.1099944  -0.1099944), wk =   0.0002634
        k(  428) = (   0.5342585   0.1257079  -0.1257079), wk =   0.0002634
        k(  429) = (   0.5499719   0.1414214  -0.1414214), wk =   0.0002634
        k(  430) = (  -0.1414214  -0.5499719   0.5499719), wk =   0.0002634
        k(  431) = (  -0.1257079  -0.5342585   0.5342585), wk =   0.0002634
        k(  432) = (  -0.1099944  -0.5185450   0.5185450), wk =   0.0002634
        k(  433) = (  -0.0942809  -0.5028315   0.5028315), wk =   0.0002634
        k(  434) = (  -0.0785674  -0.4871180   0.4871180), wk =   0.0002634
        k(  435) = (  -0.0628539  -0.4714045   0.4714045), wk =   0.0002634
        k(  436) = (  -0.0471405  -0.4556910   0.4556910), wk =   0.0002634
        k(  437) = (  -0.0314270  -0.4399776   0.4399776), wk =   0.0002634
        k(  438) = (  -0.0157135  -0.4242641   0.4242641), wk =   0.0002634
        k(  439) = (   0.0000000  -0.4085506   0.4085506), wk =   0.0001317
        k(  440) = (   0.4399776   0.0000000   0.0000000), wk =   0.0000658
        k(  441) = (   0.4556910   0.0157135  -0.0157135), wk =   0.0002634
        k(  442) = (   0.4714045   0.0314270  -0.0314270), wk =   0.0002634
        k(  443) = (   0.4871180   0.0471405  -0.0471405), wk =   0.0002634
        k(  444) = (   0.5028315   0.0628539  -0.0628539), wk =   0.0002634
        k(  445) = (   0.5185450   0.0785674  -0.0785674), wk =   0.0002634
        k(  446) = (   0.5342585   0.0942809  -0.0942809), wk =   0.0002634
        k(  447) = (   0.5499719   0.1099944  -0.1099944), wk =   0.0002634
        k(  448) = (   0.5656854   0.1257079  -0.1257079), wk =   0.0002634
        k(  449) = (  -0.1257079  -0.5656854   0.5656854), wk =   0.0002634
        k(  450) = (  -0.1099944  -0.5499719   0.5499719), wk =   0.0002634
        k(  451) = (  -0.0942809  -0.5342585   0.5342585), wk =   0.0002634
        k(  452) = (  -0.0785674  -0.5185450   0.5185450), wk =   0.0002634
        k(  453) = (  -0.0628539  -0.5028315   0.5028315), wk =   0.0002634
        k(  454) = (  -0.0471405  -0.4871180   0.4871180), wk =   0.0002634
        k(  455) = (  -0.0314270  -0.4714045   0.4714045), wk =   0.0002634
        k(  456) = (  -0.0157135  -0.4556910   0.4556910), wk =   0.0002634
        k(  457) = (   0.0000000  -0.4399776   0.4399776), wk =   0.0001317
        k(  458) = (   0.4714045   0.0000000   0.0000000), wk =   0.0000658
        k(  459) = (   0.4871180   0.0157135  -0.0157135), wk =   0.0002634
        k(  460) = (   0.5028315   0.0314270  -0.0314270), wk =   0.0002634
        k(  461) = (   0.5185450   0.0471405  -0.0471405), wk =   0.0002634
        k(  462) = (   0.5342585   0.0628539  -0.0628539), wk =   0.0002634
        k(  463) = (   0.5499719   0.0785674  -0.0785674), wk =   0.0002634
        k(  464) = (   0.5656854   0.0942809  -0.0942809), wk =   0.0002634
        k(  465) = (   0.5813989   0.1099944  -0.1099944), wk =   0.0002634
        k(  466) = (  -0.1099944  -0.5813989   0.5813989), wk =   0.0002634
        k(  467) = (  -0.0942809  -0.5656854   0.5656854), wk =   0.0002634
        k(  468) = (  -0.0785674  -0.5499719   0.5499719), wk =   0.0002634
        k(  469) = (  -0.0628539  -0.5342585   0.5342585), wk =   0.0002634
        k(  470) = (  -0.0471405  -0.5185450   0.5185450), wk =   0.0002634
        k(  471) = (  -0.0314270  -0.5028315   0.5028315), wk =   0.0002634
        k(  472) = (  -0.0157135  -0.4871180   0.4871180), wk =   0.0002634
        k(  473) = (  -0.0000000  -0.4714045   0.4714045), wk =   0.0001317
        k(  474) = (   0.5028315   0.0000000   0.0000000), wk =   0.0000658
        k(  475) = (   0.5185450   0.0157135  -0.0157135), wk =   0.0002634
        k(  476) = (   0.5342585   0.0314270  -0.0314270), wk =   0.0002634
        k(  477) = (   0.5499719   0.0471405  -0.0471405), wk =   0.0002634
        k(  478) = (   0.5656854   0.0628539  -0.0628539), wk =   0.0002634
        k(  479) = (   0.5813989   0.0785674  -0.0785674), wk =   0.0002634
        k(  480) = (   0.5971124   0.0942809  -0.0942809), wk =   0.0002634
        k(  481) = (  -0.0942809  -0.5971124   0.5971124), wk =   0.0002634
        k(  482) = (  -0.0785674  -0.5813989   0.5813989), wk =   0.0002634
        k(  483) = (  -0.0628539  -0.5656854   0.5656854), wk =   0.0002634
        k(  484) = (  -0.0471405  -0.5499719   0.5499719), wk =   0.0002634
        k(  485) = (  -0.0314270  -0.5342585   0.5342585), wk =   0.0002634
        k(  486) = (  -0.0157135  -0.5185450   0.5185450), wk =   0.0002634
        k(  487) = (   0.0000000  -0.5028315   0.5028315), wk =   0.0001317
        k(  488) = (   0.5342585   0.0000000   0.0000000), wk =   0.0000658
        k(  489) = (   0.5499719   0.0157135  -0.0157135), wk =   0.0002634
        k(  490) = (   0.5656854   0.0314270  -0.0314270), wk =   0.0002634
        k(  491) = (   0.5813989   0.0471405  -0.0471405), wk =   0.0002634
        k(  492) = (   0.5971124   0.0628539  -0.0628539), wk =   0.0002634
        k(  493) = (   0.6128259   0.0785674  -0.0785674), wk =   0.0002634
        k(  494) = (  -0.0785674  -0.6128259   0.6128259), wk =   0.0002634
        k(  495) = (  -0.0628539  -0.5971124   0.5971124), wk =   0.0002634
        k(  496) = (  -0.0471405  -0.5813989   0.5813989), wk =   0.0002634
        k(  497) = (  -0.0314270  -0.5656854   0.5656854), wk =   0.0002634
        k(  498) = (  -0.0157135  -0.5499719   0.5499719), wk =   0.0002634
        k(  499) = (   0.0000000  -0.5342585   0.5342585), wk =   0.0001317
        k(  500) = (   0.5656854   0.0000000   0.0000000), wk =   0.0000658
        k(  501) = (   0.5813989   0.0157135  -0.0157135), wk =   0.0002634
        k(  502) = (   0.5971124   0.0314270  -0.0314270), wk =   0.0002634
        k(  503) = (   0.6128259   0.0471405  -0.0471405), wk =   0.0002634
        k(  504) = (   0.6285394   0.0628539  -0.0628539), wk =   0.0002634
        k(  505) = (  -0.0628539  -0.6285394   0.6285394), wk =   0.0002634
        k(  506) = (  -0.0471405  -0.6128259   0.6128259), wk =   0.0002634
        k(  507) = (  -0.0314270  -0.5971124   0.5971124), wk =   0.0002634
        k(  508) = (  -0.0157135  -0.5813989   0.5813989), wk =   0.0002634
        k(  509) = (   0.0000000  -0.5656854   0.5656854), wk =   0.0001317
        k(  510) = (   0.5971124   0.0000000   0.0000000), wk =   0.0000658
        k(  511) = (   0.6128259   0.0157135  -0.0157135), wk =   0.0002634
        k(  512) = (   0.6285394   0.0314270  -0.0314270), wk =   0.0002634
        k(  513) = (   0.6442528   0.0471405  -0.0471405), wk =   0.0002634
        k(  514) = (  -0.0471405  -0.6442528   0.6442528), wk =   0.0002634
        k(  515) = (  -0.0314270  -0.6285394   0.6285394), wk =   0.0002634
        k(  516) = (  -0.0157135  -0.6128259   0.6128259), wk =   0.0002634
        k(  517) = (  -0.0000000  -0.5971124   0.5971124), wk =   0.0001317
        k(  518) = (   0.6285394   0.0000000   0.0000000), wk =   0.0000658
        k(  519) = (   0.6442528   0.0157135  -0.0157135), wk =   0.0002634
        k(  520) = (   0.6599663   0.0314270  -0.0314270), wk =   0.0002634
        k(  521) = (  -0.0314270  -0.6599663   0.6599663), wk =   0.0002634
        k(  522) = (  -0.0157135  -0.6442528   0.6442528), wk =   0.0002634
        k(  523) = (   0.0000000  -0.6285394   0.6285394), wk =   0.0001317
        k(  524) = (   0.6599663   0.0000000   0.0000000), wk =   0.0000658
        k(  525) = (   0.6756798   0.0157135  -0.0157135), wk =   0.0002634
        k(  526) = (  -0.0157135  -0.6756798   0.6756798), wk =   0.0002634
        k(  527) = (   0.0000000  -0.6599663   0.6599663), wk =   0.0001317
        k(  528) = (   0.6913933   0.0000000   0.0000000), wk =   0.0000658
        k(  529) = (  -0.0000000  -0.6913933   0.6913933), wk =   0.0001317
        k(  530) = (   0.0628539   0.0314270   0.0000000), wk =   0.0002634
        k(  531) = (   0.0785674   0.0471405  -0.0157135), wk =   0.0005267
        k(  532) = (   0.0942809   0.0628539  -0.0314270), wk =   0.0005267
        k(  533) = (   0.1099944   0.0785674  -0.0471405), wk =   0.0005267
        k(  534) = (   0.1257079   0.0942809  -0.0628539), wk =   0.0005267
        k(  535) = (   0.1414214   0.1099944  -0.0785674), wk =   0.0005267
        k(  536) = (   0.1571348   0.1257079  -0.0942809), wk =   0.0005267
        k(  537) = (   0.1728483   0.1414214  -0.1099944), wk =   0.0005267
        k(  538) = (   0.1885618   0.1571348  -0.1257079), wk =   0.0005267
        k(  539) = (   0.2042753   0.1728483  -0.1414214), wk =   0.0005267
        k(  540) = (   0.2199888   0.1885618  -0.1571348), wk =   0.0005267
        k(  541) = (   0.2357023   0.2042753  -0.1728483), wk =   0.0005267
        k(  542) = (   0.2514157   0.2199888  -0.1885618), wk =   0.0005267
        k(  543) = (   0.2671292   0.2357023  -0.2042753), wk =   0.0005267
        k(  544) = (   0.2828427   0.2514157  -0.2199888), wk =   0.0005267
        k(  545) = (   0.2985562   0.2671292  -0.2357023), wk =   0.0005267
        k(  546) = (   0.3142697   0.2828427  -0.2514157), wk =   0.0005267
        k(  547) = (   0.3299832   0.2985562  -0.2671292), wk =   0.0005267
        k(  548) = (   0.3456966   0.3142697  -0.2828427), wk =   0.0005267
        k(  549) = (   0.3614101   0.3299832  -0.2985562), wk =   0.0005267
        k(  550) = (  -0.3299832  -0.3614101   0.3928371), wk =   0.0005267
        k(  551) = (   0.0942809   0.0314270   0.0000000), wk =   0.0002634
        k(  552) = (   0.1099944   0.0471405  -0.0157135), wk =   0.0005267
        k(  553) = (   0.1257079   0.0628539  -0.0314270), wk =   0.0005267
        k(  554) = (   0.1414214   0.0785674  -0.0471405), wk =   0.0005267
        k(  555) = (   0.1571348   0.0942809  -0.0628539), wk =   0.0005267
        k(  556) = (   0.1728483   0.1099944  -0.0785674), wk =   0.0005267
        k(  557) = (   0.1885618   0.1257079  -0.0942809), wk =   0.0005267
        k(  558) = (   0.2042753   0.1414214  -0.1099944), wk =   0.0005267
        k(  559) = (   0.2199888   0.1571348  -0.1257079), wk =   0.0005267
        k(  560) = (   0.2357023   0.1728483  -0.1414214), wk =   0.0005267
        k(  561) = (   0.2514157   0.1885618  -0.1571348), wk =   0.0005267
        k(  562) = (   0.2671292   0.2042753  -0.1728483), wk =   0.0005267
        k(  563) = (   0.2828427   0.2199888  -0.1885618), wk =   0.0005267
        k(  564) = (   0.2985562   0.2357023  -0.2042753), wk =   0.0005267
        k(  565) = (   0.3142697   0.2514157  -0.2199888), wk =   0.0005267
        k(  566) = (   0.3299832   0.2671292  -0.2357023), wk =   0.0005267
        k(  567) = (   0.3456966   0.2828427  -0.2514157), wk =   0.0005267
        k(  568) = (   0.3614101   0.2985562  -0.2671292), wk =   0.0005267
        k(  569) = (   0.3771236   0.3142697  -0.2828427), wk =   0.0005267
        k(  570) = (  -0.3142697  -0.3771236   0.4085506), wk =   0.0005267
        k(  571) = (  -0.2985562  -0.3614101   0.3928371), wk =   0.0005267
        k(  572) = (  -0.2828427  -0.3456966   0.3771236), wk =   0.0005267
        k(  573) = (  -0.2671292  -0.3299832   0.3614101), wk =   0.0005267
        k(  574) = (  -0.2514157  -0.3142697   0.3456966), wk =   0.0005267
        k(  575) = (  -0.2357023  -0.2985562   0.3299832), wk =   0.0005267
        k(  576) = (  -0.2199888  -0.2828427   0.3142697), wk =   0.0005267
        k(  577) = (  -0.2042753  -0.2671292   0.2985562), wk =   0.0005267
        k(  578) = (  -0.1885618  -0.2514157   0.2828427), wk =   0.0005267
        k(  579) = (  -0.1728483  -0.2357023   0.2671292), wk =   0.0005267
        k(  580) = (  -0.1571348  -0.2199888   0.2514157), wk =   0.0005267
        k(  581) = (  -0.1414214  -0.2042753   0.2357023), wk =   0.0005267
        k(  582) = (  -0.1257079  -0.1885618   0.2199888), wk =   0.0005267
        k(  583) = (  -0.1099944  -0.1728483   0.2042753), wk =   0.0005267
        k(  584) = (  -0.0942809  -0.1571348   0.1885618), wk =   0.0005267
        k(  585) = (  -0.0785674  -0.1414214   0.1728483), wk =   0.0005267
        k(  586) = (  -0.0628539  -0.1257079   0.1571348), wk =   0.0005267
        k(  587) = (  -0.0471405  -0.1099944   0.1414214), wk =   0.0005267
        k(  588) = (  -0.0314270  -0.0942809   0.1257079), wk =   0.0005267
        k(  589) = (  -0.0157135  -0.0785674   0.1099944), wk =   0.0005267
        k(  590) = (   0.0000000  -0.0628539   0.0942809), wk =   0.0002634
        k(  591) = (   0.1257079   0.0314270   0.0000000), wk =   0.0002634
        k(  592) = (   0.1414214   0.0471405  -0.0157135), wk =   0.0005267
        k(  593) = (   0.1571348   0.0628539  -0.0314270), wk =   0.0005267
        k(  594) = (   0.1728483   0.0785674  -0.0471405), wk =   0.0005267
        k(  595) = (   0.1885618   0.0942809  -0.0628539), wk =   0.0005267
        k(  596) = (   0.2042753   0.1099944  -0.0785674), wk =   0.0005267
        k(  597) = (   0.2199888   0.1257079  -0.0942809), wk =   0.0005267
        k(  598) = (   0.2357023   0.1414214  -0.1099944), wk =   0.0005267
        k(  599) = (   0.2514157   0.1571348  -0.1257079), wk =   0.0005267
        k(  600) = (   0.2671292   0.1728483  -0.1414214), wk =   0.0005267
        k(  601) = (   0.2828427   0.1885618  -0.1571348), wk =   0.0005267
        k(  602) = (   0.2985562   0.2042753  -0.1728483), wk =   0.0005267
        k(  603) = (   0.3142697   0.2199888  -0.1885618), wk =   0.0005267
        k(  604) = (   0.3299832   0.2357023  -0.2042753), wk =   0.0005267
        k(  605) = (   0.3456966   0.2514157  -0.2199888), wk =   0.0005267
        k(  606) = (   0.3614101   0.2671292  -0.2357023), wk =   0.0005267
        k(  607) = (   0.3771236   0.2828427  -0.2514157), wk =   0.0005267
        k(  608) = (   0.3928371   0.2985562  -0.2671292), wk =   0.0005267
        k(  609) = (  -0.2985562  -0.3928371   0.4242641), wk =   0.0005267
        k(  610) = (  -0.2828427  -0.3771236   0.4085506), wk =   0.0005267
        k(  611) = (  -0.2671292  -0.3614101   0.3928371), wk =   0.0005267
        k(  612) = (  -0.2514157  -0.3456966   0.3771236), wk =   0.0005267
        k(  613) = (  -0.2357023  -0.3299832   0.3614101), wk =   0.0005267
        k(  614) = (  -0.2199888  -0.3142697   0.3456966), wk =   0.0005267
        k(  615) = (  -0.2042753  -0.2985562   0.3299832), wk =   0.0005267
        k(  616) = (  -0.1885618  -0.2828427   0.3142697), wk =   0.0005267
        k(  617) = (  -0.1728483  -0.2671292   0.2985562), wk =   0.0005267
        k(  618) = (  -0.1571348  -0.2514157   0.2828427), wk =   0.0005267
        k(  619) = (  -0.1414214  -0.2357023   0.2671292), wk =   0.0005267
        k(  620) = (  -0.1257079  -0.2199888   0.2514157), wk =   0.0005267
        k(  621) = (  -0.1099944  -0.2042753   0.2357023), wk =   0.0005267
        k(  622) = (  -0.0942809  -0.1885618   0.2199888), wk =   0.0005267
        k(  623) = (  -0.0785674  -0.1728483   0.2042753), wk =   0.0005267
        k(  624) = (  -0.0628539  -0.1571348   0.1885618), wk =   0.0005267
        k(  625) = (  -0.0471405  -0.1414214   0.1728483), wk =   0.0005267
        k(  626) = (  -0.0314270  -0.1257079   0.1571348), wk =   0.0005267
        k(  627) = (  -0.0157135  -0.1099944   0.1414214), wk =   0.0005267
        k(  628) = (   0.0000000  -0.0942809   0.1257079), wk =   0.0002634
        k(  629) = (   0.1571348   0.0314270   0.0000000), wk =   0.0002634
        k(  630) = (   0.1728483   0.0471405  -0.0157135), wk =   0.0005267
        k(  631) = (   0.1885618   0.0628539  -0.0314270), wk =   0.0005267
        k(  632) = (   0.2042753   0.0785674  -0.0471405), wk =   0.0005267
        k(  633) = (   0.2199888   0.0942809  -0.0628539), wk =   0.0005267
        k(  634) = (   0.2357023   0.1099944  -0.0785674), wk =   0.0005267
        k(  635) = (   0.2514157   0.1257079  -0.0942809), wk =   0.0005267
        k(  636) = (   0.2671292   0.1414214  -0.1099944), wk =   0.0005267
        k(  637) = (   0.2828427   0.1571348  -0.1257079), wk =   0.0005267
        k(  638) = (   0.2985562   0.1728483  -0.1414214), wk =   0.0005267
        k(  639) = (   0.3142697   0.1885618  -0.1571348), wk =   0.0005267
        k(  640) = (   0.3299832   0.2042753  -0.1728483), wk =   0.0005267
        k(  641) = (   0.3456966   0.2199888  -0.1885618), wk =   0.0005267
        k(  642) = (   0.3614101   0.2357023  -0.2042753), wk =   0.0005267
        k(  643) = (   0.3771236   0.2514157  -0.2199888), wk =   0.0005267
        k(  644) = (   0.3928371   0.2671292  -0.2357023), wk =   0.0005267
        k(  645) = (   0.4085506   0.2828427  -0.2514157), wk =   0.0005267
        k(  646) = (  -0.2828427  -0.4085506   0.4399776), wk =   0.0005267
        k(  647) = (  -0.2671292  -0.3928371   0.4242641), wk =   0.0005267
        k(  648) = (  -0.2514157  -0.3771236   0.4085506), wk =   0.0005267
        k(  649) = (  -0.2357023  -0.3614101   0.3928371), wk =   0.0005267
        k(  650) = (  -0.2199888  -0.3456966   0.3771236), wk =   0.0005267
        k(  651) = (  -0.2042753  -0.3299832   0.3614101), wk =   0.0005267
        k(  652) = (  -0.1885618  -0.3142697   0.3456966), wk =   0.0005267
        k(  653) = (  -0.1728483  -0.2985562   0.3299832), wk =   0.0005267
        k(  654) = (  -0.1571348  -0.2828427   0.3142697), wk =   0.0005267
        k(  655) = (  -0.1414214  -0.2671292   0.2985562), wk =   0.0005267
        k(  656) = (  -0.1257079  -0.2514157   0.2828427), wk =   0.0005267
        k(  657) = (  -0.1099944  -0.2357023   0.2671292), wk =   0.0005267
        k(  658) = (  -0.0942809  -0.2199888   0.2514157), wk =   0.0005267
        k(  659) = (  -0.0785674  -0.2042753   0.2357023), wk =   0.0005267
        k(  660) = (  -0.0628539  -0.1885618   0.2199888), wk =   0.0005267
        k(  661) = (  -0.0471405  -0.1728483   0.2042753), wk =   0.0005267
        k(  662) = (  -0.0314270  -0.1571348   0.1885618), wk =   0.0005267
        k(  663) = (  -0.0157135  -0.1414214   0.1728483), wk =   0.0005267
        k(  664) = (  -0.0000000  -0.1257079   0.1571348), wk =   0.0002634
        k(  665) = (   0.1885618   0.0314270   0.0000000), wk =   0.0002634
        k(  666) = (   0.2042753   0.0471405  -0.0157135), wk =   0.0005267
        k(  667) = (   0.2199888   0.0628539  -0.0314270), wk =   0.0005267
        k(  668) = (   0.2357023   0.0785674  -0.0471405), wk =   0.0005267
        k(  669) = (   0.2514157   0.0942809  -0.0628539), wk =   0.0005267
        k(  670) = (   0.2671292   0.1099944  -0.0785674), wk =   0.0005267
        k(  671) = (   0.2828427   0.1257079  -0.0942809), wk =   0.0005267
        k(  672) = (   0.2985562   0.1414214  -0.1099944), wk =   0.0005267
        k(  673) = (   0.3142697   0.1571348  -0.1257079), wk =   0.0005267
        k(  674) = (   0.3299832   0.1728483  -0.1414214), wk =   0.0005267
        k(  675) = (   0.3456966   0.1885618  -0.1571348), wk =   0.0005267
        k(  676) = (   0.3614101   0.2042753  -0.1728483), wk =   0.0005267
        k(  677) = (   0.3771236   0.2199888  -0.1885618), wk =   0.0005267
        k(  678) = (   0.3928371   0.2357023  -0.2042753), wk =   0.0005267
        k(  679) = (   0.4085506   0.2514157  -0.2199888), wk =   0.0005267
        k(  680) = (   0.4242641   0.2671292  -0.2357023), wk =   0.0005267
        k(  681) = (  -0.2671292  -0.4242641   0.4556910), wk =   0.0005267
        k(  682) = (  -0.2514157  -0.4085506   0.4399776), wk =   0.0005267
        k(  683) = (  -0.2357023  -0.3928371   0.4242641), wk =   0.0005267
        k(  684) = (  -0.2199888  -0.3771236   0.4085506), wk =   0.0005267
        k(  685) = (  -0.2042753  -0.3614101   0.3928371), wk =   0.0005267
        k(  686) = (  -0.1885618  -0.3456966   0.3771236), wk =   0.0005267
        k(  687) = (  -0.1728483  -0.3299832   0.3614101), wk =   0.0005267
        k(  688) = (  -0.1571348  -0.3142697   0.3456966), wk =   0.0005267
        k(  689) = (  -0.1414214  -0.2985562   0.3299832), wk =   0.0005267
        k(  690) = (  -0.1257079  -0.2828427   0.3142697), wk =   0.0005267
        k(  691) = (  -0.1099944  -0.2671292   0.2985562), wk =   0.0005267
        k(  692) = (  -0.0942809  -0.2514157   0.2828427), wk =   0.0005267
        k(  693) = (  -0.0785674  -0.2357023   0.2671292), wk =   0.0005267
        k(  694) = (  -0.0628539  -0.2199888   0.2514157), wk =   0.0005267
        k(  695) = (  -0.0471405  -0.2042753   0.2357023), wk =   0.0005267
        k(  696) = (  -0.0314270  -0.1885618   0.2199888), wk =   0.0005267
        k(  697) = (  -0.0157135  -0.1728483   0.2042753), wk =   0.0005267
        k(  698) = (  -0.0000000  -0.1571348   0.1885618), wk =   0.0002634
        k(  699) = (   0.2199888   0.0314270   0.0000000), wk =   0.0002634
        k(  700) = (   0.2357023   0.0471405  -0.0157135), wk =   0.0005267
        k(  701) = (   0.2514157   0.0628539  -0.0314270), wk =   0.0005267
        k(  702) = (   0.2671292   0.0785674  -0.0471405), wk =   0.0005267
[...]
     1.0000   1.0000   1.0000   1.0000   1.0000   1.0000   1.0000   1.0000
     1.0000   1.0000   1.0000   1.0000   0.0000   0.0000   0.0000   0.0000
     0.0000   0.0000   0.0000   0.0000

          k =-0.0786-0.4243 0.7071 ( 15403 PWs)   bands (ev):

   -14.0886 -14.0886 -14.0846 -14.0846 -13.9429 -13.9429 -13.8999 -13.8999
   -13.8805 -13.8805 -13.8427 -13.8427 -13.8397 -13.8397 -13.8052 -13.8052
   -13.6626 -13.6626 -13.6587 -13.6587  -0.1189  -0.1189   0.7892   0.7892
     4.7288   4.7288   5.1118   5.1118   9.4387   9.4387   9.4388   9.4389
    10.2583  10.2583  10.2628  10.2628

     occupation numbers 
     1.0000   1.0000   1.0000   1.0000   1.0000   1.0000   1.0000   1.0000
     1.0000   1.0000   1.0000   1.0000   1.0000   1.0000   1.0000   1.0000
     1.0000   1.0000   1.0000   1.0000   1.0000   1.0000   1.0000   1.0000
     1.0000   1.0000   1.0000   1.0000   0.0000   0.0000   0.0000   0.0000
     0.0000   0.0000   0.0000   0.0000

          k =-0.0629-0.4086 0.6914 ( 15391 PWs)   bands (ev):

   -14.0894 -14.0894 -14.0854 -14.0854 -13.9373 -13.9373 -13.9019 -13.9019
   -13.8767 -13.8767 -13.8451 -13.8451 -13.8401 -13.8401 -13.8098 -13.8098
   -13.6618 -13.6618 -13.6578 -13.6578  -0.0234  -0.0234   0.6898   0.6898
     4.7129   4.7129   5.0606   5.0606   9.4388   9.4388   9.4389   9.4389
    10.2783  10.2783  10.5276  10.5276

     occupation numbers 
     1.0000   1.0000   1.0000   1.0000   1.0000   1.0000   1.0000   1.0000
     1.0000   1.0000   1.0000   1.0000   1.0000   1.0000   1.0000   1.0000
     1.0000   1.0000   1.0000   1.0000   1.0000   1.0000   1.0000   1.0000
     1.0000   1.0000   1.0000   1.0000   0.0000   0.0000   0.0000   0.0000
     0.0000   0.0000   0.0000   0.0000

          k =-0.0471-0.3928 0.6757 ( 15396 PWs)   bands (ev):

   -14.0901 -14.0901 -14.0857 -14.0857 -13.9336 -13.9336 -13.9025 -13.9025
   -13.8736 -13.8736 -13.8494 -13.8494 -13.8390 -13.8390 -13.8128 -13.8128
   -13.6614 -13.6614 -13.6570 -13.6570   0.0461   0.0461   0.6187   0.6187
     4.6939   4.6939   5.0372   5.0372   9.4388   9.4388   9.4389   9.4389
    10.2985  10.2986  10.7750  10.7750

     occupation numbers 
     1.0000   1.0000   1.0000   1.0000   1.0000   1.0000   1.0000   1.0000
     1.0000   1.0000   1.0000   1.0000   1.0000   1.0000   1.0000   1.0000
     1.0000   1.0000   1.0000   1.0000   1.0000   1.0000   1.0000   1.0000
     1.0000   1.0000   1.0000   1.0000   0.0000   0.0000   0.0000   0.0000
     0.0000   0.0000   0.0000   0.0000

          k =-0.0314-0.3771 0.6600 ( 15390 PWs)   bands (ev):

   -14.0907 -14.0907 -14.0857 -14.0857 -13.9324 -13.9324 -13.9012 -13.9012
   -13.8726 -13.8726 -13.8513 -13.8513 -13.8398 -13.8398 -13.8136 -13.8136
   -13.6614 -13.6614 -13.6565 -13.6565   0.0656   0.0656   0.5995   0.5995
     4.6715   4.6715   5.0430   5.0430   9.4388   9.4388   9.4390   9.4390
    10.3185  10.3185  10.9551  10.9551

     occupation numbers 
     1.0000   1.0000   1.0000   1.0000   1.0000   1.0000   1.0000   1.0000
     1.0000   1.0000   1.0000   1.0000   1.0000   1.0000   1.0000   1.0000
     1.0000   1.0000   1.0000   1.0000   1.0000   1.0000   1.0000   1.0000
     1.0000   1.0000   1.0000   1.0000   0.0000   0.0000   0.0000   0.0000
     0.0000   0.0000   0.0000   0.0000

          k =-0.0157-0.3614 0.6443 ( 15394 PWs)   bands (ev):

   -14.0909 -14.0909 -14.0853 -14.0853 -13.9338 -13.9338 -13.8981 -13.8981
   -13.8747 -13.8747 -13.8496 -13.8496 -13.8424 -13.8424 -13.8123 -13.8123
   -13.6618 -13.6618 -13.6563 -13.6563   0.0255   0.0255   0.6418   0.6418
     4.6497   4.6497   5.0745   5.0745   9.4388   9.4388   9.4390   9.4390
    10.3339  10.3339  11.0092  11.0092

     occupation numbers 
     1.0000   1.0000   1.0000   1.0000   1.0000   1.0000   1.0000   1.0000
     1.0000   1.0000   1.0000   1.0000   1.0000   1.0000   1.0000   1.0000
     1.0000   1.0000   1.0000   1.0000   1.0000   1.0000   1.0000   1.0000
     1.0000   1.0000   1.0000   1.0000   0.0000   0.0000   0.0000   0.0000
     0.0000   0.0000   0.0000   0.0000

          k =-0.0000-0.3457 0.6285 ( 15399 PWs)   bands (ev):

   -14.0909 -14.0909 -14.0847 -14.0847 -13.9372 -13.9372 -13.8940 -13.8940
   -13.8787 -13.8787 -13.8461 -13.8461 -13.8453 -13.8453 -13.8096 -13.8096
   -13.6624 -13.6624 -13.6564 -13.6564  -0.0549  -0.0549   0.7256   0.7256
     4.6342   4.6342   5.1265   5.1265   9.4388   9.4388   9.4390   9.4390
    10.3352  10.3353  10.9304  10.9304

     occupation numbers 
     1.0000   1.0000   1.0000   1.0000   1.0000   1.0000   1.0000   1.0000
     1.0000   1.0000   1.0000   1.0000   1.0000   1.0000   1.0000   1.0000
     1.0000   1.0000   1.0000   1.0000   1.0000   1.0000   1.0000   1.0000
     1.0000   1.0000   1.0000   1.0000   0.0000   0.0000   0.0000   0.0000
     0.0000   0.0000   0.0000   0.0000

          k =-0.0471-0.4243 0.7071 ( 15406 PWs)   bands (ev):

   -14.0885 -14.0885 -14.0860 -14.0860 -13.9351 -13.9351 -13.9092 -13.9092
   -13.8724 -13.8724 -13.8479 -13.8479 -13.8345 -13.8345 -13.8118 -13.8118
   -13.6611 -13.6611 -13.6587 -13.6587   0.0571   0.0571   0.6031   0.6031
     4.7695   4.7695   4.9997   4.9997   9.4387   9.4387   9.4388   9.4388
    10.2588  10.2588  10.2677  10.2677

     occupation numbers 
     1.0000   1.0000   1.0000   1.0000   1.0000   1.0000   1.0000   1.0000
     1.0000   1.0000   1.0000   1.0000   1.0000   1.0000   1.0000   1.0000
     1.0000   1.0000   1.0000   1.0000   1.0000   1.0000   1.0000   1.0000
     1.0000   1.0000   1.0000   1.0000   0.0000   0.0000   0.0000   0.0000
     0.0000   0.0000   0.0000   0.0000

          k =-0.0314-0.4086 0.6914 ( 15398 PWs)   bands (ev):

   -14.0891 -14.0891 -14.0866 -14.0866 -13.9298 -13.9298 -13.9105 -13.9105
   -13.8690 -13.8690 -13.8525 -13.8525 -13.8329 -13.8329 -13.8162 -13.8162
   -13.6605 -13.6605 -13.6580 -13.6580   0.1431   0.1431   0.5172   0.5172
     4.7587   4.7587   4.9605   4.9605   9.4388   9.4388   9.4389   9.4389
    10.2868  10.2868  10.5406  10.5406

     occupation numbers 
     1.0000   1.0000   1.0000   1.0000   1.0000   1.0000   1.0000   1.0000
     1.0000   1.0000   1.0000   1.0000   1.0000   1.0000   1.0000   1.0000
     1.0000   1.0000   1.0000   1.0000   1.0000   1.0000   1.0000   1.0000
     1.0000   1.0000   1.0000   1.0000   0.0000   0.0000   0.0000   0.0000
     0.0000   0.0000   0.0000   0.0000

          k =-0.0157-0.3928 0.6757 ( 15396 PWs)   bands (ev):

   -14.0899 -14.0899 -14.0865 -14.0865 -13.9281 -13.9281 -13.9087 -13.9087
   -13.8676 -13.8676 -13.8550 -13.8550 -13.8341 -13.8341 -13.8174 -13.8174
   -13.6605 -13.6605 -13.6572 -13.6572   0.1713   0.1713   0.4904   0.4904
     4.7258   4.7258   4.9687   4.9687   9.4388   9.4388   9.4389   9.4389
    10.3104  10.3104  10.8035  10.8035

     occupation numbers 
     1.0000   1.0000   1.0000   1.0000   1.0000   1.0000   1.0000   1.0000
     1.0000   1.0000   1.0000   1.0000   1.0000   1.0000   1.0000   1.0000
     1.0000   1.0000   1.0000   1.0000   1.0000   1.0000   1.0000   1.0000
     1.0000   1.0000   1.0000   1.0000   0.0000   0.0000   0.0000   0.0000
     0.0000   0.0000   0.0000   0.0000

          k =-0.0000-0.3771 0.6600 ( 15402 PWs)   bands (ev):

   -14.0905 -14.0905 -14.0861 -14.0861 -13.9300 -13.9300 -13.9040 -13.9040
   -13.8702 -13.8702 -13.8533 -13.8533 -13.8379 -13.8379 -13.8155 -13.8155
   -13.6610 -13.6610 -13.6566 -13.6566   0.1182   0.1182   0.5459   0.5459
     4.6847   4.6847   5.0112   5.0112   9.4388   9.4388   9.4389   9.4389
    10.3296  10.3296  10.9963  10.9963

     occupation numbers 
     1.0000   1.0000   1.0000   1.0000   1.0000   1.0000   1.0000   1.0000
     1.0000   1.0000   1.0000   1.0000   1.0000   1.0000   1.0000   1.0000
     1.0000   1.0000   1.0000   1.0000   1.0000   1.0000   1.0000   1.0000
     1.0000   1.0000   1.0000   1.0000   0.0000   0.0000   0.0000   0.0000
     0.0000   0.0000   0.0000   0.0000

          k =-0.0157-0.4243 0.7071 ( 15400 PWs)   bands (ev):

   -14.0880 -14.0880 -14.0872 -14.0872 -13.9268 -13.9268 -13.9182 -13.9182
   -13.8643 -13.8643 -13.8561 -13.8561 -13.8266 -13.8266 -13.8190 -13.8190
   -13.6599 -13.6599 -13.6591 -13.6591   0.2365   0.2365   0.4187   0.4187
     4.8282   4.8282   4.9050   4.9050   9.4388   9.4388   9.4388   9.4388
    10.2609  10.2609  10.2657  10.2657

     occupation numbers 
     1.0000   1.0000   1.0000   1.0000   1.0000   1.0000   1.0000   1.0000
     1.0000   1.0000   1.0000   1.0000   1.0000   1.0000   1.0000   1.0000
     1.0000   1.0000   1.0000   1.0000   1.0000   1.0000   1.0000   1.0000
     1.0000   1.0000   1.0000   1.0000   0.0000   0.0000   0.0000   0.0000
     0.0000   0.0000   0.0000   0.0000

          k = 0.0000-0.4086 0.6914 ( 15396 PWs)   bands (ev):

   -14.0889 -14.0889 -14.0872 -14.0872 -13.9247 -13.9247 -13.9161 -13.9161
   -13.8631 -13.8631 -13.8585 -13.8585 -13.8281 -13.8281 -13.8206 -13.8206
   -13.6599 -13.6599 -13.6582 -13.6582   0.2649   0.2649   0.3933   0.3933
     4.7916   4.7916   4.9095   4.9095   9.4388   9.4388   9.4389   9.4389
    10.2886  10.2886  10.5445  10.5445

     occupation numbers 
     1.0000   1.0000   1.0000   1.0000   1.0000   1.0000   1.0000   1.0000
     1.0000   1.0000   1.0000   1.0000   1.0000   1.0000   1.0000   1.0000
     1.0000   1.0000   1.0000   1.0000   1.0000   1.0000   1.0000   1.0000
     1.0000   1.0000   1.0000   1.0000   0.0000   0.0000   0.0000   0.0000
     0.0000   0.0000   0.0000   0.0000

          k =-0.0786-0.3928 0.7071 ( 15389 PWs)   bands (ev):

   -14.0900 -14.0900 -14.0849 -14.0849 -13.9390 -13.9390 -13.8961 -13.8961
   -13.8802 -13.8802 -13.8450 -13.8450 -13.8424 -13.8424 -13.8083 -13.8083
   -13.6623 -13.6623 -13.6573 -13.6573  -0.0872  -0.0872   0.7590   0.7590
     4.6735   4.6735   5.1126   5.1126   9.4387   9.4387   9.4389   9.4389
    10.4079  10.4079  10.6032  10.6033

     occupation numbers 
     1.0000   1.0000   1.0000   1.0000   1.0000   1.0000   1.0000   1.0000
     1.0000   1.0000   1.0000   1.0000   1.0000   1.0000   1.0000   1.0000
     1.0000   1.0000   1.0000   1.0000   1.0000   1.0000   1.0000   1.0000
     1.0000   1.0000   1.0000   1.0000   0.0000   0.0000   0.0000   0.0000
     0.0000   0.0000   0.0000   0.0000

          k =-0.0629-0.3771 0.6914 ( 15388 PWs)   bands (ev):

   -14.0904 -14.0904 -14.0856 -14.0856 -13.9345 -13.9345 -13.8989 -13.8989
   -13.8762 -13.8762 -13.8475 -13.8475 -13.8418 -13.8418 -13.8119 -13.8119
   -13.6615 -13.6615 -13.6568 -13.6568   0.0013   0.0013   0.6669   0.6669
     4.6732   4.6732   5.0605   5.0605   9.4387   9.4388   9.4390   9.4390
    10.4481  10.4481  10.7781  10.7781

     occupation numbers 
     1.0000   1.0000   1.0000   1.0000   1.0000   1.0000   1.0000   1.0000
     1.0000   1.0000   1.0000   1.0000   1.0000   1.0000   1.0000   1.0000
     1.0000   1.0000   1.0000   1.0000   1.0000   1.0000   1.0000   1.0000
     1.0000   1.0000   1.0000   1.0000   0.0000   0.0000   0.0000   0.0000
     0.0000   0.0000   0.0000   0.0000

          k =-0.0471-0.3614 0.6757 ( 15397 PWs)   bands (ev):

   -14.0906 -14.0906 -14.0859 -14.0859 -13.9319 -13.9319 -13.9007 -13.9007
   -13.8735 -13.8735 -13.8508 -13.8508 -13.8400 -13.8400 -13.8140 -13.8140
   -13.6612 -13.6612 -13.6566 -13.6566   0.0571   0.0571   0.6095   0.6095
     4.6749   4.6749   5.0324   5.0324   9.4388   9.4388   9.4389   9.4390
    10.4579  10.4579  10.8897  10.8902

     occupation numbers 
     1.0000   1.0000   1.0000   1.0000   1.0000   1.0000   1.0000   1.0000
     1.0000   1.0000   1.0000   1.0000   1.0000   1.0000   1.0000   1.0000
     1.0000   1.0000   1.0000   1.0000   1.0000   1.0000   1.0000   1.0000
     1.0000   1.0000   1.0000   1.0000   0.0000   0.0000   0.0000   0.0000
     0.0000   0.0000   0.0000   0.0000

          k =-0.0471-0.3928 0.7071 ( 15388 PWs)   bands (ev):

   -14.0896 -14.0896 -14.0865 -14.0865 -13.9312 -13.9312 -13.9054 -13.9054
   -13.8726 -13.8726 -13.8499 -13.8499 -13.8370 -13.8370 -13.8148 -13.8148
   -13.6606 -13.6606 -13.6575 -13.6575   0.0780   0.0780   0.5867   0.5867
     4.7247   4.7247   4.9890   4.9890   9.4388   9.4388   9.4389   9.4389
    10.4952  10.4952  10.5872  10.5872

     occupation numbers 
     1.0000   1.0000   1.0000   1.0000   1.0000   1.0000   1.0000   1.0000
     1.0000   1.0000   1.0000   1.0000   1.0000   1.0000   1.0000   1.0000
     1.0000   1.0000   1.0000   1.0000   1.0000   1.0000   1.0000   1.0000
     1.0000   1.0000   1.0000   1.0000   0.0000   0.0000   0.0000   0.0000
     0.0000   0.0000   0.0000   0.0000

          k =-0.0314-0.3771 0.6914 ( 15392 PWs)   bands (ev):

   -14.0898 -14.0898 -14.0870 -14.0870 -13.9270 -13.9270 -13.9076 -13.9076
   -13.8693 -13.8693 -13.8540 -13.8540 -13.8347 -13.8347 -13.8182 -13.8182
   -13.6600 -13.6600 -13.6573 -13.6573   0.1544   0.1544   0.5097   0.5097
     4.7316   4.7316   4.9476   4.9476   9.4388   9.4388   9.4389   9.4389
    10.5378  10.5378  10.7866  10.7866

     occupation numbers 
     1.0000   1.0000   1.0000   1.0000   1.0000   1.0000   1.0000   1.0000
     1.0000   1.0000   1.0000   1.0000   1.0000   1.0000   1.0000   1.0000
     1.0000   1.0000   1.0000   1.0000   1.0000   1.0000   1.0000   1.0000
     1.0000   1.0000   1.0000   1.0000   0.0000   0.0000   0.0000   0.0000
     0.0000   0.0000   0.0000   0.0000

          k =-0.0157-0.3614 0.6757 ( 15398 PWs)   bands (ev):

   -14.0901 -14.0901 -14.0870 -14.0870 -13.9264 -13.9264 -13.9070 -13.9070
   -13.8689 -13.8689 -13.8549 -13.8549 -13.8352 -13.8352 -13.8186 -13.8186
   -13.6600 -13.6600 -13.6570 -13.6570   0.1638   0.1638   0.5007   0.5007
     4.7204   4.7204   4.9504   4.9504   9.4388   9.4388   9.4389   9.4389
    10.5464  10.5464  10.9125  10.9125

     occupation numbers 
     1.0000   1.0000   1.0000   1.0000   1.0000   1.0000   1.0000   1.0000
     1.0000   1.0000   1.0000   1.0000   1.0000   1.0000   1.0000   1.0000
     1.0000   1.0000   1.0000   1.0000   1.0000   1.0000   1.0000   1.0000
     1.0000   1.0000   1.0000   1.0000   0.0000   0.0000   0.0000   0.0000
     0.0000   0.0000   0.0000   0.0000

          k = 0.0000-0.3457 0.6600 ( 15391 PWs)   bands (ev):

   -14.0903 -14.0903 -14.0865 -14.0865 -13.9295 -13.9295 -13.9035 -13.9035
   -13.8719 -13.8719 -13.8519 -13.8519 -13.8382 -13.8382 -13.8160 -13.8160
   -13.6606 -13.6606 -13.6568 -13.6568   0.0985   0.0985   0.5675   0.5675
     4.6961   4.6961   4.9929   4.9929   9.4388   9.4388   9.4389   9.4389
    10.5303  10.5304  10.8822  10.8822

     occupation numbers 
     1.0000   1.0000   1.0000   1.0000   1.0000   1.0000   1.0000   1.0000
     1.0000   1.0000   1.0000   1.0000   1.0000   1.0000   1.0000   1.0000
     1.0000   1.0000   1.0000   1.0000   1.0000   1.0000   1.0000   1.0000
     1.0000   1.0000   1.0000   1.0000   0.0000   0.0000   0.0000   0.0000
     0.0000   0.0000   0.0000   0.0000

          k =-0.0157-0.3928 0.7071 ( 15397 PWs)   bands (ev):

   -14.0889 -14.0889 -14.0878 -14.0878 -13.9230 -13.9230 -13.9144 -13.9144
   -13.8651 -13.8651 -13.8575 -13.8575 -13.8292 -13.8292 -13.8218 -13.8218
   -13.6592 -13.6592 -13.6582 -13.6582   0.2457   0.2457   0.4155   0.4155
     4.7945   4.7945   4.8828   4.8828   9.4389   9.4389   9.4389   9.4389
    10.5440  10.5440  10.5702  10.5702

     occupation numbers 
     1.0000   1.0000   1.0000   1.0000   1.0000   1.0000   1.0000   1.0000
     1.0000   1.0000   1.0000   1.0000   1.0000   1.0000   1.0000   1.0000
     1.0000   1.0000   1.0000   1.0000   1.0000   1.0000   1.0000   1.0000
     1.0000   1.0000   1.0000   1.0000   0.0000   0.0000   0.0000   0.0000
     0.0000   0.0000   0.0000   0.0000

          k =-0.0000-0.3771 0.6914 ( 15398 PWs)   bands (ev):

   -14.0893 -14.0893 -14.0878 -14.0878 -13.9219 -13.9219 -13.9131 -13.9131
   -13.8645 -13.8645 -13.8588 -13.8588 -13.8301 -13.8301 -13.8225 -13.8225
   -13.6592 -13.6592 -13.6577 -13.6577   0.2600   0.2600   0.4027   0.4027
     4.7758   4.7758   4.8851   4.8851   9.4389   9.4389   9.4389   9.4389
    10.5652  10.5652  10.7934  10.7934

     occupation numbers 
     1.0000   1.0000   1.0000   1.0000   1.0000   1.0000   1.0000   1.0000
     1.0000   1.0000   1.0000   1.0000   1.0000   1.0000   1.0000   1.0000
     1.0000   1.0000   1.0000   1.0000   1.0000   1.0000   1.0000   1.0000
     1.0000   1.0000   1.0000   1.0000   0.0000   0.0000   0.0000   0.0000
     0.0000   0.0000   0.0000   0.0000

          k =-0.0157-0.3614 0.7071 ( 15398 PWs)   bands (ev):

   -14.0893 -14.0893 -14.0880 -14.0880 -13.9213 -13.9213 -13.9126 -13.9126
   -13.8652 -13.8652 -13.8585 -13.8585 -13.8304 -13.8304 -13.8230 -13.8230
   -13.6590 -13.6590 -13.6577 -13.6577   0.2536   0.2536   0.4101   0.4101
     4.7768   4.7768   4.8760   4.8760   9.4388   9.4388   9.4389   9.4389
    10.6931  10.6931  10.8089  10.8089

     occupation numbers 
     1.0000   1.0000   1.0000   1.0000   1.0000   1.0000   1.0000   1.0000
     1.0000   1.0000   1.0000   1.0000   1.0000   1.0000   1.0000   1.0000
     1.0000   1.0000   1.0000   1.0000   1.0000   1.0000   1.0000   1.0000
     1.0000   1.0000   1.0000   1.0000   0.0000   0.0000   0.0000   0.0000
     0.0000   0.0000   0.0000   0.0000

     the Fermi energy is     7.5570 ev

!    total energy              =    -256.22171654 Ry
     Harris-Foulkes estimate   =    -256.22171617 Ry
     estimated scf accuracy    <       0.00000089 Ry

     The total energy is the sum of the following terms:

     one-electron contribution =    -135.98139007 Ry
     hartree contribution      =      79.14313437 Ry
     xc contribution           =     -31.47606265 Ry
     ewald contribution        =    -167.90739818 Ry
     smearing contrib. (-TS)   =      -0.00000001 Ry

     convergence has been achieved in   4 iterations

     Writing output data file Sn.save
 
     init_run     :     48.61s CPU     60.71s WALL (       1 calls)
     electrons    :   1114.16s CPU   1340.61s WALL (       1 calls)

     Called by init_run:
     wfcinit      :     48.17s CPU     60.14s WALL (       1 calls)
     potinit      :      0.05s CPU      0.08s WALL (       1 calls)

     Called by electrons:
     c_bands      :    973.85s CPU   1170.79s WALL (       5 calls)
     sum_band     :    140.03s CPU    169.08s WALL (       5 calls)
     v_of_rho     :      0.15s CPU      0.21s WALL (       5 calls)
     v_h          :      0.01s CPU      0.02s WALL (       5 calls)
     v_xc         :      0.14s CPU      0.19s WALL (       5 calls)
     mix_rho      :      0.04s CPU      0.10s WALL (       5 calls)

     Called by c_bands:
     init_us_2    :      2.06s CPU      2.99s WALL (    3168 calls)
     cegterg      :    900.20s CPU   1096.09s WALL (    1440 calls)

     Called by sum_band:

     Called by *egterg:
     h_psi        :    810.83s CPU   1007.49s WALL (    8878 calls)
     g_psi        :      3.41s CPU      3.46s WALL (    7150 calls)
     cdiaghg      :     24.93s CPU     26.02s WALL (    8302 calls)
     cegterg:over :     41.49s CPU     41.71s WALL (    7150 calls)
     cegterg:upda :     29.18s CPU     29.31s WALL (    7150 calls)
     cegterg:last :     13.30s CPU     13.33s WALL (    2016 calls)

     Called by h_psi:
     h_psi:vloc   :    784.61s CPU    980.29s WALL (    8878 calls)
     h_psi:vnl    :     22.25s CPU     22.89s WALL (    8878 calls)
     add_vuspsi   :      9.64s CPU      9.79s WALL (    8878 calls)

     General routines
     calbec       :     12.55s CPU     13.06s WALL (    8878 calls)
     fft          :      0.13s CPU      0.20s WALL (      86 calls)
     fftw         :    843.10s CPU   1060.64s WALL (  883752 calls)
     davcio       :      0.39s CPU     20.62s WALL (     288 calls)
 
     Parallel routines
     fft_scatter  :    522.62s CPU    702.14s WALL (  883838 calls)
 
     PWSCF        : 19m32.08s CPU    23m51.36s WALL

 
   This run was terminated on:  22: 6:43  18Mar2020            

=------------------------------------------------------------------------------=
   JOB DONE.
=------------------------------------------------------------------------------=
