
     Program PWSCF v.5.4.0 starts on 18Mar2020 at 22:19:58 

     This program is part of the open-source Quantum ESPRESSO suite
     for quantum simulation of materials; please cite
         "P. Giannozzi et al., J. Phys.:Condens. Matter 21 395502 (2009);
          URL http://www.quantum-espresso.org", 
     in publications or presentations arising from this work. More details at
     http://www.quantum-espresso.org/quote

     Parallel version (MPI & OpenMP), running on      64 processor cores
     Number of MPI processes:                64
     Threads/MPI process:                     1
     R & G space division:  proc/nbgrp/npool/nimage =      64
     Waiting for input...
     Reading input from standard input
Warning: card &IONS ignored
Warning: card / ignored
Warning: card &CELL ignored
Warning: card / ignored

     Current dimensions of program PWSCF are:
     Max number of different atomic species (ntypx) = 10
     Max number of k-points (npk) =  40000
     Max angular momentum in pseudopotentials (lmaxx) =  3

     Atomic positions and unit cell read from directory:
     ./Sn.save/
 
     Message from routine setup:
     At least one non s.o. pseudo

     Subspace diagonalization in iterative solution of the eigenvalue problem:
     a serial algorithm will be used

 
     Parallelization info
     --------------------
     sticks:   dense  smooth     PW     G-vecs:    dense   smooth      PW
     Min          50      50     13                 1919     1919     271
     Max          51      51     14                 1928     1928     279
     Sum        3259    3259    889               123189   123189   17573
 


     bravais-lattice index     =            0
     lattice parameter (alat)  =       8.8927  a.u.
     unit-cell volume          =     497.2569 (a.u.)^3
     number of atoms/cell      =            2
     number of atomic types    =            1
     number of electrons       =        28.00
     number of Kohn-Sham states=           36
     kinetic-energy cutoff     =     150.0000  Ry
     charge density cutoff     =     600.0000  Ry
     Exchange-correlation      = PBE ( 1  4  3  4 0 0)
     Non magnetic calculation with spin-orbit


     celldm(1)=   8.892665  celldm(2)=   0.000000  celldm(3)=   0.000000
     celldm(4)=   0.000000  celldm(5)=   0.000000  celldm(6)=   0.000000

     crystal axes: (cart. coord. in units of alat)
               a(1) = (   0.000000   0.707107   0.707107 )  
               a(2) = (   0.707107   0.000000   0.707107 )  
               a(3) = (   0.707107   0.707107   0.000000 )  

     reciprocal axes: (cart. coord. in units 2 pi/alat)
               b(1) = ( -0.707107  0.707107  0.707107 )  
               b(2) = (  0.707107 -0.707107  0.707107 )  
               b(3) = (  0.707107  0.707107 -0.707107 )  


     PseudoPot. # 1 for Sn read from file:
     ../PseudopotentialDatabase/Sn_ONCV_PBE-1.0.upf
     MD5 check sum: 4ecdb67ea6112684f1b2ae1cab9d4ca6
     Pseudo is Norm-conserving, Zval = 14.0
     Generated using ONCVPSP code by D. R. Hamann
     Using radial grid of  602 points,  6 beta functions with: 
                l(1) =   0
                l(2) =   0
                l(3) =   1
                l(4) =   1
                l(5) =   2
                l(6) =   2

     atomic species   valence    mass     pseudopotential
        Sn            14.00   118.71000     Sn( 1.00)

     48 Sym. Ops., with inversion, found (24 have fractional translation)


                                    s                        frac. trans.

      isym =  1     identity                                     

 cryst.   s( 1) = (     1          0          0      )
                  (     0          1          0      )
                  (     0          0          1      )

 cart.    s( 1) = (  1.0000000  0.0000000  0.0000000 )
                  (  0.0000000  1.0000000  0.0000000 )
                  (  0.0000000  0.0000000  1.0000000 )


      isym =  2     180 deg rotation - cart. axis [0,0,1]        

 cryst.   s( 2) = (     0          1         -1      )
                  (     1          0         -1      )
                  (     0          0         -1      )

 cart.    s( 2) = ( -1.0000000  0.0000000  0.0000000 )
                  (  0.0000000 -1.0000000  0.0000000 )
                  (  0.0000000  0.0000000  1.0000000 )


      isym =  3     180 deg rotation - cart. axis [0,1,0]        

 cryst.   s( 3) = (     0         -1          1      )
                  (     0         -1          0      )
                  (     1         -1          0      )

 cart.    s( 3) = ( -1.0000000  0.0000000  0.0000000 )
                  (  0.0000000  1.0000000  0.0000000 )
                  (  0.0000000  0.0000000 -1.0000000 )


      isym =  4     180 deg rotation - cart. axis [1,0,0]        

 cryst.   s( 4) = (    -1          0          0      )
                  (    -1          0          1      )
                  (    -1          1          0      )

 cart.    s( 4) = (  1.0000000  0.0000000  0.0000000 )
                  (  0.0000000 -1.0000000  0.0000000 )
                  (  0.0000000  0.0000000 -1.0000000 )


      isym =  5     180 deg rotation - cart. axis [1,1,0]        

 cryst.   s( 5) = (    -1          0          1      )    f =( -0.2500000 )
                  (     0         -1          1      )       ( -0.2500000 )
                  (     0          0          1      )       ( -0.2500000 )

 cart.    s( 5) = (  0.0000000  1.0000000  0.0000000 )    f =( -0.3535534 )
                  (  1.0000000  0.0000000  0.0000000 )       ( -0.3535534 )
                  (  0.0000000  0.0000000 -1.0000000 )       ( -0.3535534 )


      isym =  6     180 deg rotation - cart. axis [1,-1,0]       

 cryst.   s( 6) = (     0         -1          0      )    f =( -0.2500000 )
                  (    -1          0          0      )       ( -0.2500000 )
                  (     0          0         -1      )       ( -0.2500000 )

 cart.    s( 6) = (  0.0000000 -1.0000000  0.0000000 )    f =( -0.3535534 )
                  ( -1.0000000  0.0000000  0.0000000 )       ( -0.3535534 )
                  (  0.0000000  0.0000000 -1.0000000 )       ( -0.3535534 )


      isym =  7      90 deg rotation - cart. axis [0,0,-1]       

 cryst.   s( 7) = (     0          1          0      )    f =( -0.2500000 )
                  (     0          1         -1      )       ( -0.2500000 )
                  (    -1          1          0      )       ( -0.2500000 )

 cart.    s( 7) = (  0.0000000  1.0000000  0.0000000 )    f =( -0.3535534 )
                  ( -1.0000000  0.0000000  0.0000000 )       ( -0.3535534 )
                  (  0.0000000  0.0000000  1.0000000 )       ( -0.3535534 )


      isym =  8      90 deg rotation - cart. axis [0,0,1]        

 cryst.   s( 8) = (     1          0         -1      )    f =( -0.2500000 )
                  (     1          0          0      )       ( -0.2500000 )
                  (     1         -1          0      )       ( -0.2500000 )

 cart.    s( 8) = (  0.0000000 -1.0000000  0.0000000 )    f =( -0.3535534 )
                  (  1.0000000  0.0000000  0.0000000 )       ( -0.3535534 )
                  (  0.0000000  0.0000000  1.0000000 )       ( -0.3535534 )


      isym =  9     180 deg rotation - cart. axis [1,0,1]        

 cryst.   s( 9) = (    -1          1          0      )    f =( -0.2500000 )
                  (     0          1          0      )       ( -0.2500000 )
                  (     0          1         -1      )       ( -0.2500000 )

 cart.    s( 9) = (  0.0000000  0.0000000  1.0000000 )    f =( -0.3535534 )
                  (  0.0000000 -1.0000000  0.0000000 )       ( -0.3535534 )
                  (  1.0000000  0.0000000  0.0000000 )       ( -0.3535534 )


      isym = 10     180 deg rotation - cart. axis [-1,0,1]       

 cryst.   s(10) = (     0          0         -1      )    f =( -0.2500000 )
                  (     0         -1          0      )       ( -0.2500000 )
                  (    -1          0          0      )       ( -0.2500000 )

 cart.    s(10) = (  0.0000000  0.0000000 -1.0000000 )    f =( -0.3535534 )
                  (  0.0000000 -1.0000000  0.0000000 )       ( -0.3535534 )
                  ( -1.0000000  0.0000000  0.0000000 )       ( -0.3535534 )


      isym = 11      90 deg rotation - cart. axis [0,1,0]        

 cryst.   s(11) = (     0          0          1      )    f =( -0.2500000 )
                  (    -1          0          1      )       ( -0.2500000 )
                  (     0         -1          1      )       ( -0.2500000 )

 cart.    s(11) = (  0.0000000  0.0000000  1.0000000 )    f =( -0.3535534 )
                  (  0.0000000  1.0000000  0.0000000 )       ( -0.3535534 )
                  ( -1.0000000  0.0000000  0.0000000 )       ( -0.3535534 )


      isym = 12      90 deg rotation - cart. axis [0,-1,0]       

 cryst.   s(12) = (     1         -1          0      )    f =( -0.2500000 )
                  (     1          0         -1      )       ( -0.2500000 )
                  (     1          0          0      )       ( -0.2500000 )

 cart.    s(12) = (  0.0000000  0.0000000 -1.0000000 )    f =( -0.3535534 )
                  (  0.0000000  1.0000000  0.0000000 )       ( -0.3535534 )
                  (  1.0000000  0.0000000  0.0000000 )       ( -0.3535534 )


      isym = 13     180 deg rotation - cart. axis [0,1,1]        

 cryst.   s(13) = (     1          0          0      )    f =( -0.2500000 )
                  (     1         -1          0      )       ( -0.2500000 )
                  (     1          0         -1      )       ( -0.2500000 )

 cart.    s(13) = ( -1.0000000  0.0000000  0.0000000 )    f =( -0.3535534 )
                  (  0.0000000  0.0000000  1.0000000 )       ( -0.3535534 )
                  (  0.0000000  1.0000000  0.0000000 )       ( -0.3535534 )


      isym = 14     180 deg rotation - cart. axis [0,1,-1]       

 cryst.   s(14) = (    -1          0          0      )    f =( -0.2500000 )
                  (     0          0         -1      )       ( -0.2500000 )
                  (     0         -1          0      )       ( -0.2500000 )

 cart.    s(14) = ( -1.0000000  0.0000000  0.0000000 )    f =( -0.3535534 )
                  (  0.0000000  0.0000000 -1.0000000 )       ( -0.3535534 )
                  (  0.0000000 -1.0000000  0.0000000 )       ( -0.3535534 )


      isym = 15      90 deg rotation - cart. axis [-1,0,0]       

 cryst.   s(15) = (     0         -1          1      )    f =( -0.2500000 )
                  (     0          0          1      )       ( -0.2500000 )
                  (    -1          0          1      )       ( -0.2500000 )

 cart.    s(15) = (  1.0000000  0.0000000  0.0000000 )    f =( -0.3535534 )
                  (  0.0000000  0.0000000  1.0000000 )       ( -0.3535534 )
                  (  0.0000000 -1.0000000  0.0000000 )       ( -0.3535534 )


      isym = 16      90 deg rotation - cart. axis [1,0,0]        

 cryst.   s(16) = (     0          1         -1      )    f =( -0.2500000 )
                  (    -1          1          0      )       ( -0.2500000 )
                  (     0          1          0      )       ( -0.2500000 )

 cart.    s(16) = (  1.0000000  0.0000000  0.0000000 )    f =( -0.3535534 )
                  (  0.0000000  0.0000000 -1.0000000 )       ( -0.3535534 )
                  (  0.0000000  1.0000000  0.0000000 )       ( -0.3535534 )


      isym = 17     120 deg rotation - cart. axis [-1,-1,-1]     

 cryst.   s(17) = (     0          0          1      )
                  (     1          0          0      )
                  (     0          1          0      )

 cart.    s(17) = (  0.0000000  1.0000000  0.0000000 )
                  (  0.0000000  0.0000000  1.0000000 )
                  (  1.0000000  0.0000000  0.0000000 )


      isym = 18     120 deg rotation - cart. axis [-1,1,1]       

 cryst.   s(18) = (     1         -1          0      )
                  (     0         -1          1      )
                  (     0         -1          0      )

 cart.    s(18) = (  0.0000000 -1.0000000  0.0000000 )
                  (  0.0000000  0.0000000  1.0000000 )
                  ( -1.0000000  0.0000000  0.0000000 )


      isym = 19     120 deg rotation - cart. axis [1,1,-1]       

 cryst.   s(19) = (    -1          1          0      )
                  (    -1          0          0      )
                  (    -1          0          1      )

 cart.    s(19) = (  0.0000000  1.0000000  0.0000000 )
                  (  0.0000000  0.0000000 -1.0000000 )
                  ( -1.0000000  0.0000000  0.0000000 )


      isym = 20     120 deg rotation - cart. axis [1,-1,1]       

 cryst.   s(20) = (     0          0         -1      )
                  (     0          1         -1      )
                  (     1          0         -1      )

 cart.    s(20) = (  0.0000000 -1.0000000  0.0000000 )
                  (  0.0000000  0.0000000 -1.0000000 )
                  (  1.0000000  0.0000000  0.0000000 )


      isym = 21     120 deg rotation - cart. axis [1,1,1]        

 cryst.   s(21) = (     0          1          0      )
                  (     0          0          1      )
                  (     1          0          0      )

 cart.    s(21) = (  0.0000000  0.0000000  1.0000000 )
                  (  1.0000000  0.0000000  0.0000000 )
                  (  0.0000000  1.0000000  0.0000000 )


      isym = 22     120 deg rotation - cart. axis [-1,1,-1]      

 cryst.   s(22) = (    -1          0          1      )
                  (    -1          1          0      )
                  (    -1          0          0      )

 cart.    s(22) = (  0.0000000  0.0000000  1.0000000 )
                  ( -1.0000000  0.0000000  0.0000000 )
                  (  0.0000000 -1.0000000  0.0000000 )


      isym = 23     120 deg rotation - cart. axis [1,-1,-1]      

 cryst.   s(23) = (     1          0         -1      )
                  (     0          0         -1      )
                  (     0          1         -1      )

 cart.    s(23) = (  0.0000000  0.0000000 -1.0000000 )
                  ( -1.0000000  0.0000000  0.0000000 )
                  (  0.0000000  1.0000000  0.0000000 )


      isym = 24     120 deg rotation - cart. axis [-1,-1,1]      

 cryst.   s(24) = (     0         -1          0      )
                  (     1         -1          0      )
                  (     0         -1          1      )

 cart.    s(24) = (  0.0000000  0.0000000 -1.0000000 )
                  (  1.0000000  0.0000000  0.0000000 )
                  (  0.0000000 -1.0000000  0.0000000 )


      isym = 25     inversion                                    

 cryst.   s(25) = (    -1          0          0      )    f =( -0.2500000 )
                  (     0         -1          0      )       ( -0.2500000 )
                  (     0          0         -1      )       ( -0.2500000 )

 cart.    s(25) = ( -1.0000000  0.0000000  0.0000000 )    f =( -0.3535534 )
                  (  0.0000000 -1.0000000  0.0000000 )       ( -0.3535534 )
                  (  0.0000000  0.0000000 -1.0000000 )       ( -0.3535534 )


      isym = 26     inv. 180 deg rotation - cart. axis [0,0,1]   

 cryst.   s(26) = (     0         -1          1      )    f =( -0.2500000 )
                  (    -1          0          1      )       ( -0.2500000 )
                  (     0          0          1      )       ( -0.2500000 )

 cart.    s(26) = (  1.0000000  0.0000000  0.0000000 )    f =( -0.3535534 )
                  (  0.0000000  1.0000000  0.0000000 )       ( -0.3535534 )
                  (  0.0000000  0.0000000 -1.0000000 )       ( -0.3535534 )


      isym = 27     inv. 180 deg rotation - cart. axis [0,1,0]   

 cryst.   s(27) = (     0          1         -1      )    f =( -0.2500000 )
                  (     0          1          0      )       ( -0.2500000 )
                  (    -1          1          0      )       ( -0.2500000 )

 cart.    s(27) = (  1.0000000  0.0000000  0.0000000 )    f =( -0.3535534 )
                  (  0.0000000 -1.0000000  0.0000000 )       ( -0.3535534 )
                  (  0.0000000  0.0000000  1.0000000 )       ( -0.3535534 )


      isym = 28     inv. 180 deg rotation - cart. axis [1,0,0]   

 cryst.   s(28) = (     1          0          0      )    f =( -0.2500000 )
                  (     1          0         -1      )       ( -0.2500000 )
                  (     1         -1          0      )       ( -0.2500000 )

 cart.    s(28) = ( -1.0000000  0.0000000  0.0000000 )    f =( -0.3535534 )
                  (  0.0000000  1.0000000  0.0000000 )       ( -0.3535534 )
                  (  0.0000000  0.0000000  1.0000000 )       ( -0.3535534 )


      isym = 29     inv. 180 deg rotation - cart. axis [1,1,0]   

 cryst.   s(29) = (     1          0         -1      )
                  (     0          1         -1      )
                  (     0          0         -1      )

 cart.    s(29) = (  0.0000000 -1.0000000  0.0000000 )
                  ( -1.0000000  0.0000000  0.0000000 )
                  (  0.0000000  0.0000000  1.0000000 )


      isym = 30     inv. 180 deg rotation - cart. axis [1,-1,0]  

 cryst.   s(30) = (     0          1          0      )
                  (     1          0          0      )
                  (     0          0          1      )

 cart.    s(30) = (  0.0000000  1.0000000  0.0000000 )
                  (  1.0000000  0.0000000  0.0000000 )
                  (  0.0000000  0.0000000  1.0000000 )


      isym = 31     inv.  90 deg rotation - cart. axis [0,0,-1]  

 cryst.   s(31) = (     0         -1          0      )
                  (     0         -1          1      )
                  (     1         -1          0      )

 cart.    s(31) = (  0.0000000 -1.0000000  0.0000000 )
                  (  1.0000000  0.0000000  0.0000000 )
                  (  0.0000000  0.0000000 -1.0000000 )


      isym = 32     inv.  90 deg rotation - cart. axis [0,0,1]   

 cryst.   s(32) = (    -1          0          1      )
                  (    -1          0          0      )
                  (    -1          1          0      )

 cart.    s(32) = (  0.0000000  1.0000000  0.0000000 )
                  ( -1.0000000  0.0000000  0.0000000 )
                  (  0.0000000  0.0000000 -1.0000000 )


      isym = 33     inv. 180 deg rotation - cart. axis [1,0,1]   

 cryst.   s(33) = (     1         -1          0      )
                  (     0         -1          0      )
                  (     0         -1          1      )

 cart.    s(33) = (  0.0000000  0.0000000 -1.0000000 )
                  (  0.0000000  1.0000000  0.0000000 )
                  ( -1.0000000  0.0000000  0.0000000 )


      isym = 34     inv. 180 deg rotation - cart. axis [-1,0,1]  

 cryst.   s(34) = (     0          0          1      )
                  (     0          1          0      )
                  (     1          0          0      )

 cart.    s(34) = (  0.0000000  0.0000000  1.0000000 )
                  (  0.0000000  1.0000000  0.0000000 )
                  (  1.0000000  0.0000000  0.0000000 )


      isym = 35     inv.  90 deg rotation - cart. axis [0,1,0]   

 cryst.   s(35) = (     0          0         -1      )
                  (     1          0         -1      )
                  (     0          1         -1      )

 cart.    s(35) = (  0.0000000  0.0000000 -1.0000000 )
                  (  0.0000000 -1.0000000  0.0000000 )
                  (  1.0000000  0.0000000  0.0000000 )


      isym = 36     inv.  90 deg rotation - cart. axis [0,-1,0]  

 cryst.   s(36) = (    -1          1          0      )
                  (    -1          0          1      )
                  (    -1          0          0      )

 cart.    s(36) = (  0.0000000  0.0000000  1.0000000 )
                  (  0.0000000 -1.0000000  0.0000000 )
                  ( -1.0000000  0.0000000  0.0000000 )


      isym = 37     inv. 180 deg rotation - cart. axis [0,1,1]   

 cryst.   s(37) = (    -1          0          0      )
                  (    -1          1          0      )
                  (    -1          0          1      )

 cart.    s(37) = (  1.0000000  0.0000000  0.0000000 )
                  (  0.0000000  0.0000000 -1.0000000 )
                  (  0.0000000 -1.0000000  0.0000000 )


      isym = 38     inv. 180 deg rotation - cart. axis [0,1,-1]  

 cryst.   s(38) = (     1          0          0      )
                  (     0          0          1      )
                  (     0          1          0      )

 cart.    s(38) = (  1.0000000  0.0000000  0.0000000 )
                  (  0.0000000  0.0000000  1.0000000 )
                  (  0.0000000  1.0000000  0.0000000 )


      isym = 39     inv.  90 deg rotation - cart. axis [-1,0,0]  

 cryst.   s(39) = (     0          1         -1      )
                  (     0          0         -1      )
                  (     1          0         -1      )

 cart.    s(39) = ( -1.0000000  0.0000000  0.0000000 )
                  (  0.0000000  0.0000000 -1.0000000 )
                  (  0.0000000  1.0000000  0.0000000 )


      isym = 40     inv.  90 deg rotation - cart. axis [1,0,0]   

 cryst.   s(40) = (     0         -1          1      )
                  (     1         -1          0      )
                  (     0         -1          0      )

 cart.    s(40) = ( -1.0000000  0.0000000  0.0000000 )
                  (  0.0000000  0.0000000  1.0000000 )
                  (  0.0000000 -1.0000000  0.0000000 )


      isym = 41     inv. 120 deg rotation - cart. axis [-1,-1,-1]

 cryst.   s(41) = (     0          0         -1      )    f =( -0.2500000 )
                  (    -1          0          0      )       ( -0.2500000 )
                  (     0         -1          0      )       ( -0.2500000 )

 cart.    s(41) = (  0.0000000 -1.0000000  0.0000000 )    f =( -0.3535534 )
                  (  0.0000000  0.0000000 -1.0000000 )       ( -0.3535534 )
                  ( -1.0000000  0.0000000  0.0000000 )       ( -0.3535534 )


      isym = 42     inv. 120 deg rotation - cart. axis [-1,1,1]  

 cryst.   s(42) = (    -1          1          0      )    f =( -0.2500000 )
                  (     0          1         -1      )       ( -0.2500000 )
                  (     0          1          0      )       ( -0.2500000 )

 cart.    s(42) = (  0.0000000  1.0000000  0.0000000 )    f =( -0.3535534 )
                  (  0.0000000  0.0000000 -1.0000000 )       ( -0.3535534 )
                  (  1.0000000  0.0000000  0.0000000 )       ( -0.3535534 )


      isym = 43     inv. 120 deg rotation - cart. axis [1,1,-1]  

 cryst.   s(43) = (     1         -1          0      )    f =( -0.2500000 )
                  (     1          0          0      )       ( -0.2500000 )
                  (     1          0         -1      )       ( -0.2500000 )

 cart.    s(43) = (  0.0000000 -1.0000000  0.0000000 )    f =( -0.3535534 )
                  (  0.0000000  0.0000000  1.0000000 )       ( -0.3535534 )
                  (  1.0000000  0.0000000  0.0000000 )       ( -0.3535534 )


      isym = 44     inv. 120 deg rotation - cart. axis [1,-1,1]  

 cryst.   s(44) = (     0          0          1      )    f =( -0.2500000 )
                  (     0         -1          1      )       ( -0.2500000 )
                  (    -1          0          1      )       ( -0.2500000 )

 cart.    s(44) = (  0.0000000  1.0000000  0.0000000 )    f =( -0.3535534 )
                  (  0.0000000  0.0000000  1.0000000 )       ( -0.3535534 )
                  ( -1.0000000  0.0000000  0.0000000 )       ( -0.3535534 )


      isym = 45     inv. 120 deg rotation - cart. axis [1,1,1]   

 cryst.   s(45) = (     0         -1          0      )    f =( -0.2500000 )
                  (     0          0         -1      )       ( -0.2500000 )
                  (    -1          0          0      )       ( -0.2500000 )

 cart.    s(45) = (  0.0000000  0.0000000 -1.0000000 )    f =( -0.3535534 )
                  ( -1.0000000  0.0000000  0.0000000 )       ( -0.3535534 )
                  (  0.0000000 -1.0000000  0.0000000 )       ( -0.3535534 )


      isym = 46     inv. 120 deg rotation - cart. axis [-1,1,-1] 

 cryst.   s(46) = (     1          0         -1      )    f =( -0.2500000 )
                  (     1         -1          0      )       ( -0.2500000 )
                  (     1          0          0      )       ( -0.2500000 )

 cart.    s(46) = (  0.0000000  0.0000000 -1.0000000 )    f =( -0.3535534 )
                  (  1.0000000  0.0000000  0.0000000 )       ( -0.3535534 )
                  (  0.0000000  1.0000000  0.0000000 )       ( -0.3535534 )


      isym = 47     inv. 120 deg rotation - cart. axis [1,-1,-1] 

 cryst.   s(47) = (    -1          0          1      )    f =( -0.2500000 )
                  (     0          0          1      )       ( -0.2500000 )
                  (     0         -1          1      )       ( -0.2500000 )

 cart.    s(47) = (  0.0000000  0.0000000  1.0000000 )    f =( -0.3535534 )
                  (  1.0000000  0.0000000  0.0000000 )       ( -0.3535534 )
                  (  0.0000000 -1.0000000  0.0000000 )       ( -0.3535534 )


      isym = 48     inv. 120 deg rotation - cart. axis [-1,-1,1] 

 cryst.   s(48) = (     0          1          0      )    f =( -0.2500000 )
                  (    -1          1          0      )       ( -0.2500000 )
                  (     0          1         -1      )       ( -0.2500000 )

 cart.    s(48) = (  0.0000000  0.0000000  1.0000000 )    f =( -0.3535534 )
                  ( -1.0000000  0.0000000  0.0000000 )       ( -0.3535534 )
                  (  0.0000000  1.0000000  0.0000000 )       ( -0.3535534 )


   Cartesian axes

     site n.     atom                  positions (alat units)
         1           Sn  tau(   1) = (   0.0000000   0.0000000   0.0000000  )
         2           Sn  tau(   2) = (   0.3535534   0.3535534   0.3535534  )

   Crystallographic axes

     site n.     atom                  positions (cryst. coord.)
         1           Sn  tau(   1) = (  0.0000000  0.0000000  0.0000000  )
         2           Sn  tau(   2) = (  0.2500000  0.2500000  0.2500000  )

     number of k points=   134  gaussian smearing, width (Ry)=  0.0001
                       cart. coord. in units 2pi/alat
        k(    1) = (   0.0000000   0.0000000   0.0000000), wk =   0.0074627
        k(    2) = (   0.0000000   0.0261891   0.0000000), wk =   0.0074627
        k(    3) = (   0.0000000   0.0523783   0.0000000), wk =   0.0074627
        k(    4) = (   0.0000000   0.0785674   0.0000000), wk =   0.0074627
        k(    5) = (   0.0000000   0.1047566   0.0000000), wk =   0.0074627
        k(    6) = (   0.0000000   0.1309457   0.0000000), wk =   0.0074627
        k(    7) = (   0.0000000   0.1571348   0.0000000), wk =   0.0074627
        k(    8) = (   0.0000000   0.1833240   0.0000000), wk =   0.0074627
        k(    9) = (   0.0000000   0.2095131   0.0000000), wk =   0.0074627
        k(   10) = (   0.0000000   0.2357023   0.0000000), wk =   0.0074627
        k(   11) = (   0.0000000   0.2618914   0.0000000), wk =   0.0074627
        k(   12) = (   0.0000000   0.2880805   0.0000000), wk =   0.0074627
        k(   13) = (   0.0000000   0.3142697   0.0000000), wk =   0.0074627
        k(   14) = (   0.0000000   0.3404588   0.0000000), wk =   0.0074627
        k(   15) = (   0.0000000   0.3666480   0.0000000), wk =   0.0074627
        k(   16) = (   0.0000000   0.3928371   0.0000000), wk =   0.0074627
        k(   17) = (   0.0000000   0.4190262   0.0000000), wk =   0.0074627
        k(   18) = (   0.0000000   0.4452154   0.0000000), wk =   0.0074627
        k(   19) = (   0.0000000   0.4714045   0.0000000), wk =   0.0074627
        k(   20) = (   0.0000000   0.4975937   0.0000000), wk =   0.0074627
        k(   21) = (   0.0000000   0.5237828   0.0000000), wk =   0.0074627
        k(   22) = (   0.0000000   0.5499719   0.0000000), wk =   0.0074627
        k(   23) = (   0.0000000   0.5761611   0.0000000), wk =   0.0074627
        k(   24) = (   0.0000000   0.6023502   0.0000000), wk =   0.0074627
        k(   25) = (   0.0000000   0.6285394   0.0000000), wk =   0.0074627
        k(   26) = (   0.0000000   0.6547285   0.0000000), wk =   0.0074627
        k(   27) = (   0.0000000   0.6809176   0.0000000), wk =   0.0074627
        k(   28) = (   0.0000000   0.7071068   0.0000000), wk =   0.0074627
        k(   29) = (   0.0271964   0.7071068   0.0000000), wk =   0.0074627
        k(   30) = (   0.0543928   0.7071068   0.0000000), wk =   0.0074627
        k(   31) = (   0.0815892   0.7071068  -0.0000000), wk =   0.0074627
        k(   32) = (   0.1087857   0.7071068   0.0000000), wk =   0.0074627
        k(   33) = (   0.1359821   0.7071068   0.0000000), wk =   0.0074627
        k(   34) = (   0.1631785   0.7071068   0.0000000), wk =   0.0074627
        k(   35) = (   0.1903749   0.7071068   0.0000000), wk =   0.0074627
        k(   36) = (   0.2175713   0.7071068   0.0000000), wk =   0.0074627
        k(   37) = (   0.2447677   0.7071068   0.0000000), wk =   0.0074627
        k(   38) = (   0.2719641   0.7071068   0.0000000), wk =   0.0074627
        k(   39) = (   0.2991606   0.7071068   0.0000000), wk =   0.0074627
        k(   40) = (   0.3263570   0.7071068   0.0000000), wk =   0.0074627
        k(   41) = (   0.3535534   0.7071068   0.0000000), wk =   0.0074627
        k(   42) = (   0.3535534   0.6884987   0.0186081), wk =   0.0074627
        k(   43) = (   0.3535534   0.6698906   0.0372161), wk =   0.0074627
        k(   44) = (   0.3535534   0.6512826   0.0558242), wk =   0.0074627
        k(   45) = (   0.3535534   0.6326745   0.0744323), wk =   0.0074627
        k(   46) = (   0.3535534   0.6140664   0.0930404), wk =   0.0074627
        k(   47) = (   0.3535534   0.5954583   0.1116484), wk =   0.0074627
        k(   48) = (   0.3535534   0.5768503   0.1302565), wk =   0.0074627
        k(   49) = (   0.3535534   0.5582422   0.1488646), wk =   0.0074627
        k(   50) = (   0.3535534   0.5396341   0.1674727), wk =   0.0074627
        k(   51) = (   0.3535534   0.5210260   0.1860807), wk =   0.0074627
        k(   52) = (   0.3535534   0.5024180   0.2046888), wk =   0.0074627
        k(   53) = (   0.3535534   0.4838099   0.2232969), wk =   0.0074627
        k(   54) = (   0.3535534   0.4652018   0.2419050), wk =   0.0074627
        k(   55) = (   0.3535534   0.4465938   0.2605130), wk =   0.0074627
        k(   56) = (   0.3535534   0.4279857   0.2791211), wk =   0.0074627
        k(   57) = (   0.3535534   0.4093776   0.2977292), wk =   0.0074627
        k(   58) = (   0.3535534   0.3907695   0.3163372), wk =   0.0074627
        k(   59) = (   0.3535534   0.3721615   0.3349453), wk =   0.0074627
        k(   60) = (   0.3535534   0.3535534   0.3535534), wk =   0.0074627
        k(   61) = (   0.3394113   0.3394113   0.3394113), wk =   0.0074627
        k(   62) = (   0.3252691   0.3252691   0.3252691), wk =   0.0074627
        k(   63) = (   0.3111270   0.3111270   0.3111270), wk =   0.0074627
        k(   64) = (   0.2969848   0.2969848   0.2969848), wk =   0.0074627
        k(   65) = (   0.2828427   0.2828427   0.2828427), wk =   0.0074627
        k(   66) = (   0.2687006   0.2687006   0.2687006), wk =   0.0074627
        k(   67) = (   0.2545584   0.2545584   0.2545584), wk =   0.0074627
        k(   68) = (   0.2404163   0.2404163   0.2404163), wk =   0.0074627
        k(   69) = (   0.2262742   0.2262742   0.2262742), wk =   0.0074627
        k(   70) = (   0.2121320   0.2121320   0.2121320), wk =   0.0074627
        k(   71) = (   0.1979899   0.1979899   0.1979899), wk =   0.0074627
        k(   72) = (   0.1838478   0.1838478   0.1838478), wk =   0.0074627
        k(   73) = (   0.1697056   0.1697056   0.1697056), wk =   0.0074627
        k(   74) = (   0.1555635   0.1555635   0.1555635), wk =   0.0074627
        k(   75) = (   0.1414214   0.1414214   0.1414214), wk =   0.0074627
        k(   76) = (   0.1272792   0.1272792   0.1272792), wk =   0.0074627
        k(   77) = (   0.1131371   0.1131371   0.1131371), wk =   0.0074627
        k(   78) = (   0.0989949   0.0989949   0.0989949), wk =   0.0074627
        k(   79) = (   0.0848528   0.0848528   0.0848528), wk =   0.0074627
        k(   80) = (   0.0707107   0.0707107   0.0707107), wk =   0.0074627
        k(   81) = (   0.0565685   0.0565685   0.0565685), wk =   0.0074627
        k(   82) = (   0.0424264   0.0424264   0.0424264), wk =   0.0074627
        k(   83) = (   0.0282843   0.0282843   0.0282843), wk =   0.0074627
        k(   84) = (   0.0141421   0.0141421   0.0141421), wk =   0.0074627
        k(   85) = (   0.0000000   0.0000000   0.0000000), wk =   0.0074627
        k(   86) = (   0.0171074   0.0171074   0.0000000), wk =   0.0074627
        k(   87) = (   0.0342148   0.0342148   0.0000000), wk =   0.0074627
        k(   88) = (   0.0513223   0.0513223   0.0000000), wk =   0.0074627
        k(   89) = (   0.0684297   0.0684297  -0.0000000), wk =   0.0074627
        k(   90) = (   0.0855371   0.0855371   0.0000000), wk =   0.0074627
        k(   91) = (   0.1026445   0.1026445   0.0000000), wk =   0.0074627
        k(   92) = (   0.1197520   0.1197520   0.0000000), wk =   0.0074627
        k(   93) = (   0.1368594   0.1368594   0.0000000), wk =   0.0074627
        k(   94) = (   0.1539668   0.1539668   0.0000000), wk =   0.0074627
        k(   95) = (   0.1710742   0.1710742  -0.0000000), wk =   0.0074627
        k(   96) = (   0.1881816   0.1881816   0.0000000), wk =   0.0074627
        k(   97) = (   0.2052891   0.2052891   0.0000000), wk =   0.0074627
        k(   98) = (   0.2223965   0.2223965   0.0000000), wk =   0.0074627
        k(   99) = (   0.2395039   0.2395039   0.0000000), wk =   0.0074627
        k(  100) = (   0.2566113   0.2566113   0.0000000), wk =   0.0074627
        k(  101) = (   0.2737188   0.2737188  -0.0000000), wk =   0.0074627
        k(  102) = (   0.2908262   0.2908262  -0.0000000), wk =   0.0074627
        k(  103) = (   0.3079336   0.3079336   0.0000000), wk =   0.0074627
        k(  104) = (   0.3250410   0.3250410   0.0000000), wk =   0.0074627
        k(  105) = (   0.3421484   0.3421484   0.0000000), wk =   0.0074627
        k(  106) = (   0.3592559   0.3592559   0.0000000), wk =   0.0074627
        k(  107) = (   0.3763633   0.3763633  -0.0000000), wk =   0.0074627
        k(  108) = (   0.3934707   0.3934707  -0.0000000), wk =   0.0074627
        k(  109) = (   0.4105781   0.4105781   0.0000000), wk =   0.0074627
        k(  110) = (   0.4276856   0.4276856   0.0000000), wk =   0.0074627
        k(  111) = (   0.4447930   0.4447930   0.0000000), wk =   0.0074627
        k(  112) = (   0.4619004   0.4619004   0.0000000), wk =   0.0074627
        k(  113) = (   0.4790078   0.4790078  -0.0000000), wk =   0.0074627
        k(  114) = (   0.4961152   0.4961152  -0.0000000), wk =   0.0074627
        k(  115) = (   0.5132227   0.5132227   0.0000000), wk =   0.0074627
        k(  116) = (   0.5303301   0.5303301   0.0000000), wk =   0.0074627
        k(  117) = (   0.5205092   0.5205092   0.0196419), wk =   0.0074627
        k(  118) = (   0.5106882   0.5106882   0.0392837), wk =   0.0074627
        k(  119) = (   0.5008673   0.5008673   0.0589256), wk =   0.0074627
        k(  120) = (   0.4910464   0.4910464   0.0785674), wk =   0.0074627
        k(  121) = (   0.4812254   0.4812254   0.0982093), wk =   0.0074627
        k(  122) = (   0.4714045   0.4714045   0.1178511), wk =   0.0074627
        k(  123) = (   0.4615836   0.4615836   0.1374930), wk =   0.0074627
        k(  124) = (   0.4517627   0.4517627   0.1571348), wk =   0.0074627
        k(  125) = (   0.4419417   0.4419417   0.1767767), wk =   0.0074627
        k(  126) = (   0.4321208   0.4321208   0.1964186), wk =   0.0074627
        k(  127) = (   0.4222999   0.4222999   0.2160604), wk =   0.0074627
        k(  128) = (   0.4124790   0.4124790   0.2357023), wk =   0.0074627
        k(  129) = (   0.4026580   0.4026580   0.2553441), wk =   0.0074627
        k(  130) = (   0.3928371   0.3928371   0.2749860), wk =   0.0074627
        k(  131) = (   0.3830162   0.3830162   0.2946278), wk =   0.0074627
        k(  132) = (   0.3731952   0.3731952   0.3142697), wk =   0.0074627
        k(  133) = (   0.3633743   0.3633743   0.3339115), wk =   0.0074627
        k(  134) = (   0.3535534   0.3535534   0.3535534), wk =   0.0074627

                       cryst. coord.
        k(    1) = (   0.0000000   0.0000000   0.0000000), wk =   0.0074627
        k(    2) = (   0.0185185   0.0000000   0.0185185), wk =   0.0074627
        k(    3) = (   0.0370370   0.0000000   0.0370370), wk =   0.0074627
        k(    4) = (   0.0555556   0.0000000   0.0555556), wk =   0.0074627
        k(    5) = (   0.0740741   0.0000000   0.0740741), wk =   0.0074627
        k(    6) = (   0.0925926   0.0000000   0.0925926), wk =   0.0074627
        k(    7) = (   0.1111111   0.0000000   0.1111111), wk =   0.0074627
        k(    8) = (   0.1296296   0.0000000   0.1296296), wk =   0.0074627
        k(    9) = (   0.1481481   0.0000000   0.1481481), wk =   0.0074627
        k(   10) = (   0.1666667   0.0000000   0.1666667), wk =   0.0074627
        k(   11) = (   0.1851852   0.0000000   0.1851852), wk =   0.0074627
        k(   12) = (   0.2037037   0.0000000   0.2037037), wk =   0.0074627
        k(   13) = (   0.2222222   0.0000000   0.2222222), wk =   0.0074627
        k(   14) = (   0.2407407   0.0000000   0.2407407), wk =   0.0074627
        k(   15) = (   0.2592593   0.0000000   0.2592593), wk =   0.0074627
        k(   16) = (   0.2777778   0.0000000   0.2777778), wk =   0.0074627
        k(   17) = (   0.2962963   0.0000000   0.2962963), wk =   0.0074627
        k(   18) = (   0.3148148   0.0000000   0.3148148), wk =   0.0074627
        k(   19) = (   0.3333333   0.0000000   0.3333333), wk =   0.0074627
        k(   20) = (   0.3518519   0.0000000   0.3518519), wk =   0.0074627
        k(   21) = (   0.3703704   0.0000000   0.3703704), wk =   0.0074627
        k(   22) = (   0.3888889   0.0000000   0.3888889), wk =   0.0074627
        k(   23) = (   0.4074074   0.0000000   0.4074074), wk =   0.0074627
        k(   24) = (   0.4259259   0.0000000   0.4259259), wk =   0.0074627
        k(   25) = (   0.4444444   0.0000000   0.4444444), wk =   0.0074627
        k(   26) = (   0.4629630   0.0000000   0.4629630), wk =   0.0074627
        k(   27) = (   0.4814815   0.0000000   0.4814815), wk =   0.0074627
        k(   28) = (   0.5000000   0.0000000   0.5000000), wk =   0.0074627
        k(   29) = (   0.5000000   0.0192308   0.5192308), wk =   0.0074627
        k(   30) = (   0.5000000   0.0384615   0.5384615), wk =   0.0074627
        k(   31) = (   0.5000000   0.0576923   0.5576923), wk =   0.0074627
        k(   32) = (   0.5000000   0.0769231   0.5769231), wk =   0.0074627
        k(   33) = (   0.5000000   0.0961538   0.5961538), wk =   0.0074627
        k(   34) = (   0.5000000   0.1153846   0.6153846), wk =   0.0074627
        k(   35) = (   0.5000000   0.1346154   0.6346154), wk =   0.0074627
        k(   36) = (   0.5000000   0.1538462   0.6538462), wk =   0.0074627
        k(   37) = (   0.5000000   0.1730769   0.6730769), wk =   0.0074627
        k(   38) = (   0.5000000   0.1923077   0.6923077), wk =   0.0074627
        k(   39) = (   0.5000000   0.2115385   0.7115385), wk =   0.0074627
        k(   40) = (   0.5000000   0.2307692   0.7307692), wk =   0.0074627
        k(   41) = (   0.5000000   0.2500000   0.7500000), wk =   0.0074627
        k(   42) = (   0.5000000   0.2631579   0.7368421), wk =   0.0074627
        k(   43) = (   0.5000000   0.2763158   0.7236842), wk =   0.0074627
        k(   44) = (   0.5000000   0.2894737   0.7105263), wk =   0.0074627
        k(   45) = (   0.5000000   0.3026316   0.6973684), wk =   0.0074627
        k(   46) = (   0.5000000   0.3157895   0.6842105), wk =   0.0074627
        k(   47) = (   0.5000000   0.3289474   0.6710526), wk =   0.0074627
        k(   48) = (   0.5000000   0.3421053   0.6578947), wk =   0.0074627
        k(   49) = (   0.5000000   0.3552632   0.6447368), wk =   0.0074627
        k(   50) = (   0.5000000   0.3684211   0.6315789), wk =   0.0074627
        k(   51) = (   0.5000000   0.3815789   0.6184211), wk =   0.0074627
        k(   52) = (   0.5000000   0.3947368   0.6052632), wk =   0.0074627
        k(   53) = (   0.5000000   0.4078947   0.5921053), wk =   0.0074627
        k(   54) = (   0.5000000   0.4210526   0.5789474), wk =   0.0074627
        k(   55) = (   0.5000000   0.4342105   0.5657895), wk =   0.0074627
        k(   56) = (   0.5000000   0.4473684   0.5526316), wk =   0.0074627
        k(   57) = (   0.5000000   0.4605263   0.5394737), wk =   0.0074627
        k(   58) = (   0.5000000   0.4736842   0.5263158), wk =   0.0074627
        k(   59) = (   0.5000000   0.4868421   0.5131579), wk =   0.0074627
        k(   60) = (   0.5000000   0.5000000   0.5000000), wk =   0.0074627
        k(   61) = (   0.4800000   0.4800000   0.4800000), wk =   0.0074627
        k(   62) = (   0.4600000   0.4600000   0.4600000), wk =   0.0074627
        k(   63) = (   0.4400000   0.4400000   0.4400000), wk =   0.0074627
        k(   64) = (   0.4200000   0.4200000   0.4200000), wk =   0.0074627
        k(   65) = (   0.4000000   0.4000000   0.4000000), wk =   0.0074627
        k(   66) = (   0.3800000   0.3800000   0.3800000), wk =   0.0074627
        k(   67) = (   0.3600000   0.3600000   0.3600000), wk =   0.0074627
        k(   68) = (   0.3400000   0.3400000   0.3400000), wk =   0.0074627
        k(   69) = (   0.3200000   0.3200000   0.3200000), wk =   0.0074627
        k(   70) = (   0.3000000   0.3000000   0.3000000), wk =   0.0074627
        k(   71) = (   0.2800000   0.2800000   0.2800000), wk =   0.0074627
        k(   72) = (   0.2600000   0.2600000   0.2600000), wk =   0.0074627
        k(   73) = (   0.2400000   0.2400000   0.2400000), wk =   0.0074627
        k(   74) = (   0.2200000   0.2200000   0.2200000), wk =   0.0074627
        k(   75) = (   0.2000000   0.2000000   0.2000000), wk =   0.0074627
        k(   76) = (   0.1800000   0.1800000   0.1800000), wk =   0.0074627
        k(   77) = (   0.1600000   0.1600000   0.1600000), wk =   0.0074627
        k(   78) = (   0.1400000   0.1400000   0.1400000), wk =   0.0074627
        k(   79) = (   0.1200000   0.1200000   0.1200000), wk =   0.0074627
        k(   80) = (   0.1000000   0.1000000   0.1000000), wk =   0.0074627
        k(   81) = (   0.0800000   0.0800000   0.0800000), wk =   0.0074627
        k(   82) = (   0.0600000   0.0600000   0.0600000), wk =   0.0074627
        k(   83) = (   0.0400000   0.0400000   0.0400000), wk =   0.0074627
        k(   84) = (   0.0200000   0.0200000   0.0200000), wk =   0.0074627
        k(   85) = (   0.0000000   0.0000000   0.0000000), wk =   0.0074627
        k(   86) = (   0.0120968   0.0120968   0.0241935), wk =   0.0074627
        k(   87) = (   0.0241935   0.0241935   0.0483871), wk =   0.0074627
        k(   88) = (   0.0362903   0.0362903   0.0725806), wk =   0.0074627
        k(   89) = (   0.0483871   0.0483871   0.0967742), wk =   0.0074627
        k(   90) = (   0.0604839   0.0604839   0.1209677), wk =   0.0074627
        k(   91) = (   0.0725806   0.0725806   0.1451613), wk =   0.0074627
        k(   92) = (   0.0846774   0.0846774   0.1693548), wk =   0.0074627
        k(   93) = (   0.0967742   0.0967742   0.1935484), wk =   0.0074627
        k(   94) = (   0.1088710   0.1088710   0.2177419), wk =   0.0074627
        k(   95) = (   0.1209677   0.1209677   0.2419355), wk =   0.0074627
        k(   96) = (   0.1330645   0.1330645   0.2661290), wk =   0.0074627
        k(   97) = (   0.1451613   0.1451613   0.2903226), wk =   0.0074627
        k(   98) = (   0.1572581   0.1572581   0.3145161), wk =   0.0074627
        k(   99) = (   0.1693548   0.1693548   0.3387097), wk =   0.0074627
        k(  100) = (   0.1814516   0.1814516   0.3629032), wk =   0.0074627
        k(  101) = (   0.1935484   0.1935484   0.3870968), wk =   0.0074627
        k(  102) = (   0.2056452   0.2056452   0.4112903), wk =   0.0074627
        k(  103) = (   0.2177419   0.2177419   0.4354839), wk =   0.0074627
        k(  104) = (   0.2298387   0.2298387   0.4596774), wk =   0.0074627
        k(  105) = (   0.2419355   0.2419355   0.4838710), wk =   0.0074627
        k(  106) = (   0.2540323   0.2540323   0.5080645), wk =   0.0074627
        k(  107) = (   0.2661290   0.2661290   0.5322581), wk =   0.0074627
        k(  108) = (   0.2782258   0.2782258   0.5564516), wk =   0.0074627
        k(  109) = (   0.2903226   0.2903226   0.5806452), wk =   0.0074627
        k(  110) = (   0.3024194   0.3024194   0.6048387), wk =   0.0074627
        k(  111) = (   0.3145161   0.3145161   0.6290323), wk =   0.0074627
        k(  112) = (   0.3266129   0.3266129   0.6532258), wk =   0.0074627
        k(  113) = (   0.3387097   0.3387097   0.6774194), wk =   0.0074627
        k(  114) = (   0.3508065   0.3508065   0.7016129), wk =   0.0074627
        k(  115) = (   0.3629032   0.3629032   0.7258065), wk =   0.0074627
        k(  116) = (   0.3750000   0.3750000   0.7500000), wk =   0.0074627
        k(  117) = (   0.3819444   0.3819444   0.7361111), wk =   0.0074627
        k(  118) = (   0.3888889   0.3888889   0.7222222), wk =   0.0074627
        k(  119) = (   0.3958333   0.3958333   0.7083333), wk =   0.0074627
        k(  120) = (   0.4027778   0.4027778   0.6944444), wk =   0.0074627
        k(  121) = (   0.4097222   0.4097222   0.6805556), wk =   0.0074627
        k(  122) = (   0.4166667   0.4166667   0.6666667), wk =   0.0074627
        k(  123) = (   0.4236111   0.4236111   0.6527778), wk =   0.0074627
        k(  124) = (   0.4305556   0.4305556   0.6388889), wk =   0.0074627
        k(  125) = (   0.4375000   0.4375000   0.6250000), wk =   0.0074627
        k(  126) = (   0.4444444   0.4444444   0.6111111), wk =   0.0074627
        k(  127) = (   0.4513889   0.4513889   0.5972222), wk =   0.0074627
        k(  128) = (   0.4583333   0.4583333   0.5833333), wk =   0.0074627
        k(  129) = (   0.4652778   0.4652778   0.5694444), wk =   0.0074627
        k(  130) = (   0.4722222   0.4722222   0.5555556), wk =   0.0074627
        k(  131) = (   0.4791667   0.4791667   0.5416667), wk =   0.0074627
        k(  132) = (   0.4861111   0.4861111   0.5277778), wk =   0.0074627
        k(  133) = (   0.4930556   0.4930556   0.5138889), wk =   0.0074627
        k(  134) = (   0.5000000   0.5000000   0.5000000), wk =   0.0074627

     Dense  grid:   123189 G-vectors     FFT dimensions: (  72,  72,  72)

     Largest allocated arrays     est. size (Mb)     dimensions
        Kohn-Sham Wavefunctions         0.27 Mb     (     492,   36)
        NL pseudopotentials             0.14 Mb     (     246,   36)
        Each V/rho on FFT grid          0.16 Mb     (   10368)
        Each G-vector array             0.01 Mb     (    1928)
        G-vector shells                 0.01 Mb     (     668)
     Largest temporary arrays     est. size (Mb)     dimensions
        Auxiliary wavefunctions         1.08 Mb     (     492,  144)
        Each subspace H/S matrix        0.32 Mb     (     144,  144)
        Each <psi_i|beta_j> matrix      0.04 Mb     (      36,   2,   36)

     The potential is recalculated from file :
     ./Sn.save/charge-density.dat

     Starting wfc are random

     Band Structure Calculation
     Davidson diagonalization with overlap

     Computing kpt #:     1
     total cpu time spent up to now is        8.6 secs

     Computing kpt #:     2
     total cpu time spent up to now is       12.1 secs

     Computing kpt #:     3
     total cpu time spent up to now is       15.6 secs

     Computing kpt #:     4
     total cpu time spent up to now is       19.1 secs

     Computing kpt #:     5
     total cpu time spent up to now is       22.4 secs

     Computing kpt #:     6
     total cpu time spent up to now is       25.4 secs

     Computing kpt #:     7
     total cpu time spent up to now is       28.4 secs

     Computing kpt #:     8
     total cpu time spent up to now is       31.6 secs

     Computing kpt #:     9
     total cpu time spent up to now is       34.6 secs

     Computing kpt #:    10
     total cpu time spent up to now is       37.5 secs

     Computing kpt #:    11
     total cpu time spent up to now is       40.5 secs

     Computing kpt #:    12
     total cpu time spent up to now is       43.4 secs

     Computing kpt #:    13
     total cpu time spent up to now is       47.1 secs

     Computing kpt #:    14
     total cpu time spent up to now is       50.0 secs

     Computing kpt #:    15
     total cpu time spent up to now is       52.9 secs

     Computing kpt #:    16
     total cpu time spent up to now is       55.6 secs

     Computing kpt #:    17
     total cpu time spent up to now is       58.9 secs

     Computing kpt #:    18
     total cpu time spent up to now is       61.7 secs

     Computing kpt #:    19
     total cpu time spent up to now is       64.5 secs

     Computing kpt #:    20
     total cpu time spent up to now is       66.9 secs

     Computing kpt #:    21
     total cpu time spent up to now is       70.1 secs

     Computing kpt #:    22
     total cpu time spent up to now is       72.5 secs

     Computing kpt #:    23
     total cpu time spent up to now is       75.8 secs

     Computing kpt #:    24
     total cpu time spent up to now is       78.3 secs

     Computing kpt #:    25
     total cpu time spent up to now is       80.7 secs

     Computing kpt #:    26
     total cpu time spent up to now is       83.7 secs

     Computing kpt #:    27
     total cpu time spent up to now is       86.9 secs

     Computing kpt #:    28
     total cpu time spent up to now is       90.1 secs

     Computing kpt #:    29
     total cpu time spent up to now is       93.1 secs

     Computing kpt #:    30
     total cpu time spent up to now is       96.4 secs

     Computing kpt #:    31
     total cpu time spent up to now is       99.1 secs

     Computing kpt #:    32
     total cpu time spent up to now is      101.5 secs

     Computing kpt #:    33
     total cpu time spent up to now is      103.9 secs

     Computing kpt #:    34
     total cpu time spent up to now is      106.7 secs

     Computing kpt #:    35
     total cpu time spent up to now is      109.5 secs

     Computing kpt #:    36
     total cpu time spent up to now is      112.3 secs

     Computing kpt #:    37
     total cpu time spent up to now is      114.7 secs

     Computing kpt #:    38
     total cpu time spent up to now is      117.5 secs

     Computing kpt #:    39
     total cpu time spent up to now is      120.3 secs

     Computing kpt #:    40
     total cpu time spent up to now is      123.2 secs

     Computing kpt #:    41
     total cpu time spent up to now is      126.1 secs

     Computing kpt #:    42
     total cpu time spent up to now is      129.2 secs

     Computing kpt #:    43
     total cpu time spent up to now is      132.3 secs

     Computing kpt #:    44
     total cpu time spent up to now is      135.6 secs

     Computing kpt #:    45
     total cpu time spent up to now is      138.7 secs

     Computing kpt #:    46
     total cpu time spent up to now is      141.7 secs

     Computing kpt #:    47
     total cpu time spent up to now is      144.1 secs

     Computing kpt #:    48
     total cpu time spent up to now is      147.0 secs

     Computing kpt #:    49
     total cpu time spent up to now is      149.9 secs

     Computing kpt #:    50
     total cpu time spent up to now is      152.7 secs

     Computing kpt #:    51
     total cpu time spent up to now is      155.5 secs

     Computing kpt #:    52
     total cpu time spent up to now is      158.6 secs

     Computing kpt #:    53
     total cpu time spent up to now is      161.7 secs

     Computing kpt #:    54
     total cpu time spent up to now is      164.8 secs

     Computing kpt #:    55
     total cpu time spent up to now is      168.3 secs

     Computing kpt #:    56
     total cpu time spent up to now is      171.3 secs

     Computing kpt #:    57
     total cpu time spent up to now is      174.5 secs

     Computing kpt #:    58
     total cpu time spent up to now is      177.7 secs

     Computing kpt #:    59
     total cpu time spent up to now is      181.2 secs

     Computing kpt #:    60
     total cpu time spent up to now is      184.1 secs

     Computing kpt #:    61
     total cpu time spent up to now is      187.3 secs

     Computing kpt #:    62
     total cpu time spent up to now is      190.4 secs

     Computing kpt #:    63
     total cpu time spent up to now is      193.3 secs

     Computing kpt #:    64
     total cpu time spent up to now is      196.2 secs

     Computing kpt #:    65
     total cpu time spent up to now is      199.1 secs

     Computing kpt #:    66
     total cpu time spent up to now is      202.0 secs

     Computing kpt #:    67
     total cpu time spent up to now is      204.9 secs

     Computing kpt #:    68
     total cpu time spent up to now is      207.8 secs

     Computing kpt #:    69
     total cpu time spent up to now is      210.8 secs

     Computing kpt #:    70
     total cpu time spent up to now is      213.7 secs

     Computing kpt #:    71
     total cpu time spent up to now is      216.6 secs

     Computing kpt #:    72
     total cpu time spent up to now is      219.5 secs

     Computing kpt #:    73
     total cpu time spent up to now is      222.2 secs

     Computing kpt #:    74
     total cpu time spent up to now is      225.1 secs

     Computing kpt #:    75
     total cpu time spent up to now is      228.0 secs

     Computing kpt #:    76
     total cpu time spent up to now is      230.9 secs

     Computing kpt #:    77
     total cpu time spent up to now is      233.7 secs

     Computing kpt #:    78
     total cpu time spent up to now is      236.6 secs

     Computing kpt #:    79
     total cpu time spent up to now is      239.7 secs

     Computing kpt #:    80
     total cpu time spent up to now is      242.8 secs

     Computing kpt #:    81
     total cpu time spent up to now is      245.8 secs

     Computing kpt #:    82
     total cpu time spent up to now is      249.2 secs

     Computing kpt #:    83
     total cpu time spent up to now is      252.6 secs

     Computing kpt #:    84
     total cpu time spent up to now is      255.8 secs

     Computing kpt #:    85
     total cpu time spent up to now is      258.8 secs

     Computing kpt #:    86
     total cpu time spent up to now is      262.2 secs

     Computing kpt #:    87
     total cpu time spent up to now is      265.7 secs

     Computing kpt #:    88
     total cpu time spent up to now is      268.9 secs

     Computing kpt #:    89
     total cpu time spent up to now is      272.3 secs

     Computing kpt #:    90
     total cpu time spent up to now is      275.5 secs

     Computing kpt #:    91
     total cpu time spent up to now is      278.8 secs

     Computing kpt #:    92
     total cpu time spent up to now is      282.0 secs

     Computing kpt #:    93
     total cpu time spent up to now is      285.3 secs

     Computing kpt #:    94
     total cpu time spent up to now is      288.5 secs

     Computing kpt #:    95
     total cpu time spent up to now is      291.5 secs

     Computing kpt #:    96
     total cpu time spent up to now is      294.6 secs

     Computing kpt #:    97
     total cpu time spent up to now is      297.7 secs

     Computing kpt #:    98
     total cpu time spent up to now is      300.7 secs

     Computing kpt #:    99
     total cpu time spent up to now is      303.5 secs

     Computing kpt #:   100
     total cpu time spent up to now is      306.7 secs

     Computing kpt #:   101
     total cpu time spent up to now is      309.8 secs

     Computing kpt #:   102
     total cpu time spent up to now is      313.0 secs

     Computing kpt #:   103
     total cpu time spent up to now is      316.4 secs

     Computing kpt #:   104
     total cpu time spent up to now is      319.9 secs

     Computing kpt #:   105
     total cpu time spent up to now is      323.3 secs

     Computing kpt #:   106
     total cpu time spent up to now is      326.5 secs

     Computing kpt #:   107
     total cpu time spent up to now is      329.9 secs

     Computing kpt #:   108
     total cpu time spent up to now is      333.1 secs

     Computing kpt #:   109
     total cpu time spent up to now is      336.3 secs

     Computing kpt #:   110
     total cpu time spent up to now is      339.5 secs

     Computing kpt #:   111
     total cpu time spent up to now is      342.8 secs

     Computing kpt #:   112
     total cpu time spent up to now is      345.8 secs

     Computing kpt #:   113
     total cpu time spent up to now is      348.8 secs

     Computing kpt #:   114
     total cpu time spent up to now is      351.7 secs

     Computing kpt #:   115
     total cpu time spent up to now is      354.5 secs

     Computing kpt #:   116
     total cpu time spent up to now is      357.0 secs

     Computing kpt #:   117
     total cpu time spent up to now is      359.8 secs

     Computing kpt #:   118
     total cpu time spent up to now is      362.7 secs

     Computing kpt #:   119
     total cpu time spent up to now is      365.5 secs

     Computing kpt #:   120
     total cpu time spent up to now is      368.3 secs

     Computing kpt #:   121
     total cpu time spent up to now is      371.4 secs

     Computing kpt #:   122
     total cpu time spent up to now is      374.2 secs

     Computing kpt #:   123
     total cpu time spent up to now is      377.3 secs

     Computing kpt #:   124
     total cpu time spent up to now is      380.4 secs

     Computing kpt #:   125
     total cpu time spent up to now is      383.6 secs

     Computing kpt #:   126
     total cpu time spent up to now is      386.9 secs

     Computing kpt #:   127
     total cpu time spent up to now is      390.4 secs

     Computing kpt #:   128
     total cpu time spent up to now is      393.7 secs

     Computing kpt #:   129
     total cpu time spent up to now is      397.2 secs

     Computing kpt #:   130
     total cpu time spent up to now is      400.6 secs

     Computing kpt #:   131
     total cpu time spent up to now is      403.8 secs

     Computing kpt #:   132
     total cpu time spent up to now is      407.0 secs

     Computing kpt #:   133
     total cpu time spent up to now is      410.3 secs

     Computing kpt #:   134
     total cpu time spent up to now is      413.2 secs

     ethr =  3.57E-09,  avg # of iterations = 26.2

     total cpu time spent up to now is      413.2 secs

     End of band structure calculation

          k = 0.0000 0.0000 0.0000 ( 15473 PWs)   bands (ev):

   -14.0379 -14.0379 -14.0379 -14.0379 -14.0379 -14.0379 -13.9884 -13.9884
   -13.9884 -13.9884 -13.7369 -13.7369 -13.7369 -13.7369 -13.7369 -13.7369
   -13.7355 -13.7355 -13.7355 -13.7355  -2.5636  -2.5636   6.4041   6.4041
     7.6450   7.6450   7.6450   7.6450   7.6450   7.6450   9.4290   9.4290
     9.4297   9.4297   9.7118   9.7118

          k = 0.0000 0.0262 0.0000 ( 15445 PWs)   bands (ev):

   -14.0382 -14.0382 -14.0381 -14.0381 -14.0381 -14.0381 -13.9881 -13.9881
   -13.9877 -13.9877 -13.7417 -13.7417 -13.7367 -13.7367 -13.7367 -13.7367
   -13.7357 -13.7357 -13.7313 -13.7313  -2.5595  -2.5595   6.3471   6.3471
     7.6246   7.6246   7.6246   7.6246   7.7005   7.7005   9.4290   9.4290
     9.4298   9.4298   9.6978   9.6978

          k = 0.0000 0.0524 0.0000 ( 15453 PWs)   bands (ev):

   -14.0388 -14.0388 -14.0386 -14.0386 -14.0386 -14.0386 -13.9875 -13.9875
   -13.9858 -13.9858 -13.7476 -13.7476 -13.7364 -13.7364 -13.7360 -13.7360
   -13.7360 -13.7360 -13.7269 -13.7269  -2.5472  -2.5472   6.1993   6.1993
     7.5663   7.5663   7.5663   7.5663   7.8435   7.8435   9.4290   9.4290
     9.4298   9.4298   9.6572   9.6572

          k = 0.0000 0.0786 0.0000 ( 15453 PWs)   bands (ev):

   -14.0398 -14.0398 -14.0394 -14.0394 -14.0394 -14.0394 -13.9864 -13.9864
   -13.9827 -13.9827 -13.7539 -13.7539 -13.7374 -13.7374 -13.7349 -13.7349
   -13.7349 -13.7349 -13.7231 -13.7231  -2.5266  -2.5266   5.9994   5.9994
     7.4774   7.4774   7.4774   7.4774   8.0347   8.0347   9.4288   9.4288
     9.4298   9.4298   9.5941   9.5941

          k = 0.0000 0.1048 0.0000 ( 15445 PWs)   bands (ev):

   -14.0408 -14.0408 -14.0406 -14.0406 -14.0406 -14.0406 -13.9849 -13.9849
   -13.9786 -13.9786 -13.7607 -13.7607 -13.7389 -13.7389 -13.7333 -13.7333
   -13.7333 -13.7333 -13.7198 -13.7198  -2.4979  -2.4979   5.7724   5.7724
     7.3665   7.3665   7.3665   7.3665   8.2477   8.2477   9.4284   9.4284
     9.4299   9.4299   9.5137   9.5137

          k = 0.0000 0.1309 0.0000 ( 15417 PWs)   bands (ev):

   -14.0420 -14.0420 -14.0420 -14.0420 -14.0419 -14.0419 -13.9829 -13.9829
   -13.9737 -13.9737 -13.7679 -13.7679 -13.7407 -13.7407 -13.7314 -13.7314
   -13.7314 -13.7314 -13.7170 -13.7170  -2.4610  -2.4610   5.5312   5.5312
     7.2413   7.2413   7.2413   7.2413   8.4677   8.4677   9.4150   9.4150
     9.4300   9.4300   9.4342   9.4342

          k = 0.0000 0.1571 0.0000 ( 15401 PWs)   bands (ev):

   -14.0436 -14.0436 -14.0436 -14.0436 -14.0428 -14.0428 -13.9806 -13.9806
   -13.9681 -13.9681 -13.7755 -13.7755 -13.7430 -13.7430 -13.7291 -13.7291
   -13.7291 -13.7291 -13.7149 -13.7149  -2.4160  -2.4160   5.2823   5.2823
     7.1076   7.1076   7.1076   7.1076   8.6853   8.6853   9.3190   9.3190
     9.4299   9.4299   9.4302   9.4302

          k = 0.0000 0.1833 0.0000 ( 15425 PWs)   bands (ev):

   -14.0455 -14.0455 -14.0455 -14.0455 -14.0434 -14.0434 -13.9778 -13.9778
   -13.9620 -13.9620 -13.7835 -13.7835 -13.7456 -13.7456 -13.7265 -13.7265
   -13.7265 -13.7265 -13.7133 -13.7133  -2.3629  -2.3629   5.0292   5.0292
     6.9698   6.9698   6.9698   6.9698   8.8933   8.8933   9.2154   9.2154
     9.4296   9.4296   9.4305   9.4305

          k = 0.0000 0.2095 0.0000 ( 15441 PWs)   bands (ev):

   -14.0476 -14.0476 -14.0476 -14.0476 -14.0438 -14.0438 -13.9746 -13.9746
   -13.9553 -13.9553 -13.7918 -13.7918 -13.7487 -13.7487 -13.7237 -13.7237
   -13.7237 -13.7237 -13.7123 -13.7123  -2.3017  -2.3017   4.7740   4.7740
     6.8311   6.8311   6.8311   6.8311   9.0847   9.0847   9.1111   9.1111
     9.4295   9.4295   9.4312   9.4312

          k = 0.0000 0.2357 0.0000 ( 15437 PWs)   bands (ev):

   -14.0498 -14.0498 -14.0498 -14.0498 -14.0438 -14.0438 -13.9710 -13.9710
   -13.9482 -13.9482 -13.8003 -13.8003 -13.7521 -13.7521 -13.7206 -13.7206
   -13.7206 -13.7206 -13.7118 -13.7118  -2.2324  -2.2324   4.5180   4.5180
     6.6937   6.6937   6.6937   6.6937   9.0086   9.0086   9.2516   9.2516
     9.4294   9.4294   9.4329   9.4329

          k = 0.0000 0.2619 0.0000 ( 15441 PWs)   bands (ev):

   -14.0521 -14.0521 -14.0521 -14.0521 -14.0434 -14.0434 -13.9671 -13.9671
   -13.9407 -13.9407 -13.8092 -13.8092 -13.7559 -13.7559 -13.7173 -13.7173
   -13.7173 -13.7173 -13.7120 -13.7120  -2.1552  -2.1552   4.2621   4.2621
     6.5593   6.5593   6.5593   6.5593   8.9099   8.9099   9.3806   9.3806
     9.4294   9.4294   9.4419   9.4419

          k = 0.0000 0.2881 0.0000 ( 15453 PWs)   bands (ev):

   -14.0545 -14.0545 -14.0545 -14.0545 -14.0426 -14.0426 -13.9628 -13.9628
   -13.9329 -13.9329 -13.8183 -13.8183 -13.7600 -13.7600 -13.7140 -13.7140
   -13.7140 -13.7140 -13.7127 -13.7127  -2.0701  -2.0701   4.0069   4.0069
     6.4291   6.4291   6.4291   6.4291   8.8162   8.8162   9.4212   9.4212
     9.4294   9.4294   9.5023   9.5023

          k = 0.0000 0.3143 0.0000 ( 15473 PWs)   bands (ev):

   -14.0570 -14.0570 -14.0570 -14.0570 -14.0413 -14.0413 -13.9582 -13.9582
   -13.9248 -13.9248 -13.8275 -13.8275 -13.7645 -13.7645 -13.7141 -13.7141
   -13.7105 -13.7105 -13.7105 -13.7105  -1.9772  -1.9772   3.7528   3.7528
     6.3040   6.3040   6.3040   6.3040   8.7288   8.7288   9.4250   9.4250
     9.4294   9.4294   9.5586   9.5586

          k = 0.0000 0.3405 0.0000 ( 15465 PWs)   bands (ev):

   -14.0594 -14.0594 -14.0594 -14.0594 -14.0396 -14.0396 -13.9532 -13.9532
   -13.9165 -13.9165 -13.8370 -13.8370 -13.7693 -13.7693 -13.7159 -13.7159
   -13.7070 -13.7070 -13.7070 -13.7070  -1.8764  -1.8764   3.5003   3.5003
     6.1849   6.1849   6.1849   6.1849   8.6483   8.6483   9.4258   9.4258
     9.4294   9.4294   9.5765   9.5765

          k = 0.0000 0.3666 0.0000 ( 15456 PWs)   bands (ev):

   -14.0619 -14.0619 -14.0619 -14.0619 -14.0374 -14.0374 -13.9479 -13.9479
   -13.9080 -13.9080 -13.8466 -13.8466 -13.7744 -13.7744 -13.7184 -13.7184
   -13.7035 -13.7035 -13.7035 -13.7035  -1.7680  -1.7680   3.2497   3.2497
     6.0723   6.0723   6.0723   6.0723   8.5754   8.5754   9.4256   9.4256
     9.4294   9.4294   9.5575   9.5575

          k = 0.0000 0.3928 0.0000 ( 15460 PWs)   bands (ev):

   -14.0642 -14.0642 -14.0642 -14.0642 -14.0347 -14.0347 -13.9423 -13.9423
   -13.8993 -13.8993 -13.8562 -13.8562 -13.7798 -13.7798 -13.7214 -13.7214
   -13.7001 -13.7001 -13.7001 -13.7001  -1.6520  -1.6520   3.0012   3.0012
     5.9667   5.9667   5.9667   5.9667   8.5107   8.5107   9.4238   9.4238
     9.4294   9.4294   9.5091   9.5091

          k = 0.0000 0.4190 0.0000 ( 15456 PWs)   bands (ev):

   -14.0665 -14.0665 -14.0665 -14.0665 -14.0315 -14.0315 -13.9364 -13.9364
   -13.8904 -13.8904 -13.8660 -13.8660 -13.7855 -13.7855 -13.7249 -13.7249
   -13.6968 -13.6968 -13.6968 -13.6968  -1.5285  -1.5285   2.7552   2.7552
     5.8684   5.8684   5.8684   5.8684   8.4546   8.4546   9.4098   9.4098
     9.4294   9.4294   9.4495   9.4495

          k = 0.0000 0.4452 0.0000 ( 15452 PWs)   bands (ev):

   -14.0687 -14.0687 -14.0687 -14.0687 -14.0279 -14.0279 -13.9303 -13.9303
   -13.8815 -13.8815 -13.8757 -13.8757 -13.7914 -13.7914 -13.7290 -13.7290
   -13.6936 -13.6936 -13.6936 -13.6936  -1.3976  -1.3976   2.5119   2.5119
     5.7778   5.7778   5.7778   5.7778   8.4074   8.4074   9.3369   9.3369
     9.4294   9.4294   9.4331   9.4331

          k = 0.0000 0.4714 0.0000 ( 15432 PWs)   bands (ev):

   -14.0707 -14.0707 -14.0707 -14.0707 -14.0238 -14.0238 -13.9240 -13.9240
   -13.8855 -13.8855 -13.8724 -13.8724 -13.7976 -13.7976 -13.7335 -13.7335
   -13.6907 -13.6907 -13.6907 -13.6907  -1.2595  -1.2595   2.2716   2.2716
     5.6951   5.6951   5.6951   5.6951   8.3693   8.3693   9.2402   9.2402
     9.4294   9.4294   9.4310   9.4310

          k = 0.0000 0.4976 0.0000 ( 15432 PWs)   bands (ev):

   -14.0726 -14.0726 -14.0726 -14.0726 -14.0192 -14.0192 -13.9175 -13.9175
   -13.8952 -13.8952 -13.8634 -13.8634 -13.8040 -13.8040 -13.7385 -13.7385
   -13.6879 -13.6879 -13.6879 -13.6879  -1.1142  -1.1142   2.0346   2.0346
     5.6207   5.6207   5.6207   5.6207   8.3406   8.3406   9.1376   9.1376
     9.4294   9.4294   9.4303   9.4303

          k = 0.0000 0.5238 0.0000 ( 15460 PWs)   bands (ev):

   -14.0743 -14.0743 -14.0743 -14.0743 -14.0142 -14.0142 -13.9107 -13.9107
   -13.9048 -13.9048 -13.8543 -13.8543 -13.8106 -13.8106 -13.7440 -13.7440
   -13.6854 -13.6854 -13.6854 -13.6854  -0.9619  -0.9619   1.8010   1.8010
     5.5545   5.5545   5.5545   5.5545   8.3214   8.3214   9.0341   9.0341
     9.4294   9.4294   9.4299   9.4299

          k = 0.0000 0.5500 0.0000 ( 15468 PWs)   bands (ev):

   -14.0758 -14.0758 -14.0758 -14.0758 -14.0087 -14.0087 -13.9143 -13.9143
   -13.9038 -13.9038 -13.8452 -13.8452 -13.8174 -13.8174 -13.7500 -13.7500
   -13.6832 -13.6832 -13.6832 -13.6832  -0.8028  -0.8028   1.5712   1.5712
     5.4969   5.4969   5.4969   5.4969   8.3118   8.3118   8.9328   8.9328
     9.4294   9.4294   9.4298   9.4298

          k = 0.0000 0.5762 0.0000 ( 15476 PWs)   bands (ev):

   -14.0771 -14.0771 -14.0771 -14.0771 -14.0027 -14.0027 -13.9236 -13.9236
   -13.8968 -13.8968 -13.8363 -13.8363 -13.8243 -13.8243 -13.7563 -13.7563
   -13.6812 -13.6812 -13.6812 -13.6812  -0.6370  -0.6370   1.3454   1.3454
     5.4480   5.4480   5.4480   5.4480   8.3120   8.3120   8.8358   8.8358
     9.4294   9.4294   9.4296   9.4296

          k = 0.0000 0.6024 0.0000 ( 15456 PWs)   bands (ev):

   -14.0782 -14.0782 -14.0782 -14.0782 -13.9964 -13.9964 -13.9328 -13.9328
   -13.8896 -13.8896 -13.8313 -13.8313 -13.8273 -13.8273 -13.7630 -13.7630
   -13.6796 -13.6796 -13.6796 -13.6796  -0.4647  -0.4647   1.1239   1.1239
     5.4078   5.4078   5.4078   5.4078   8.3220   8.3220   8.7448   8.7448
     9.4294   9.4294   9.4296   9.4296

          k = 0.0000 0.6285 0.0000 ( 15444 PWs)   bands (ev):

   -14.0791 -14.0791 -14.0791 -14.0791 -13.9896 -13.9896 -13.9418 -13.9418
   -13.8824 -13.8824 -13.8385 -13.8385 -13.8186 -13.8186 -13.7701 -13.7701
   -13.6783 -13.6783 -13.6783 -13.6783  -0.2861  -0.2861   0.9070   0.9070
     5.3765   5.3765   5.3765   5.3765   8.3418   8.3418   8.6610   8.6610
     9.4294   9.4294   9.4295   9.4295

          k = 0.0000 0.6547 0.0000 ( 15444 PWs)   bands (ev):

   -14.0797 -14.0797 -14.0797 -14.0797 -13.9825 -13.9825 -13.9505 -13.9505
   -13.8751 -13.8751 -13.8458 -13.8458 -13.8099 -13.8099 -13.7775 -13.7775
   -13.6774 -13.6774 -13.6774 -13.6774  -0.1014  -0.1014   0.6948   0.6948
     5.3541   5.3541   5.3541   5.3541   8.3714   8.3714   8.5851   8.5851
     9.4294   9.4294   9.4295   9.4295

          k = 0.0000 0.6809 0.0000 ( 15428 PWs)   bands (ev):

   -14.0801 -14.0801 -14.0801 -14.0801 -13.9750 -13.9750 -13.9590 -13.9590
   -13.8678 -13.8678 -13.8531 -13.8531 -13.8015 -13.8015 -13.7852 -13.7852
   -13.6769 -13.6769 -13.6769 -13.6769   0.0893   0.0893   0.4876   0.4876
     5.3406   5.3406   5.3406   5.3406   8.4107   8.4107   8.5178   8.5178
     9.4294   9.4294   9.4294   9.4294

          k = 0.0000 0.7071 0.0000 ( 15364 PWs)   bands (ev):

   -14.0802 -14.0802 -14.0802 -14.0802 -13.9671 -13.9671 -13.9671 -13.9671
   -13.8604 -13.8604 -13.8604 -13.8604 -13.7932 -13.7932 -13.7932 -13.7932
   -13.6767 -13.6767 -13.6767 -13.6767   0.2857   0.2857   0.2857   0.2857
     5.3361   5.3361   5.3361   5.3361   8.4596   8.4596   8.4596   8.4596
     9.4294   9.4294   9.4294   9.4294

          k = 0.0272 0.7071 0.0000 ( 15422 PWs)   bands (ev):

   -14.0804 -14.0804 -14.0804 -14.0804 -13.9666 -13.9666 -13.9666 -13.9666
   -13.8604 -13.8604 -13.8604 -13.8604 -13.7938 -13.7938 -13.7938 -13.7938
   -13.6765 -13.6765 -13.6765 -13.6765   0.2864   0.2864   0.2864   0.2864
     5.3267   5.3267   5.3267   5.3267   8.4816   8.4816   8.4816   8.4816
     9.4294   9.4294   9.4294   9.4294

          k = 0.0544 0.7071 0.0000 ( 15434 PWs)   bands (ev):

   -14.0811 -14.0811 -14.0811 -14.0811 -13.9649 -13.9649 -13.9649 -13.9649
   -13.8605 -13.8605 -13.8605 -13.8605 -13.7953 -13.7953 -13.7953 -13.7953
   -13.6758 -13.6758 -13.6758 -13.6758   0.2883   0.2883   0.2883   0.2883
     5.2995   5.2995   5.2995   5.2995   8.5468   8.5468   8.5468   8.5468
     9.4294   9.4294   9.4294   9.4294

          k = 0.0816 0.7071-0.0000 ( 15444 PWs)   bands (ev):

   -14.0822 -14.0822 -14.0822 -14.0822 -13.9622 -13.9622 -13.9622 -13.9622
   -13.8607 -13.8607 -13.8607 -13.8607 -13.7978 -13.7978 -13.7978 -13.7978
   -13.6747 -13.6747 -13.6747 -13.6747   0.2913   0.2913   0.2913   0.2913
     5.2574   5.2574   5.2574   5.2574   8.6521   8.6521   8.6521   8.6521
     9.4295   9.4295   9.4295   9.4295

          k = 0.1088 0.7071 0.0000 ( 15444 PWs)   bands (ev):

   -14.0836 -14.0836 -14.0836 -14.0836 -13.9587 -13.9587 -13.9587 -13.9587
   -13.8609 -13.8609 -13.8609 -13.8609 -13.8011 -13.8011 -13.8011 -13.8011
   -13.6734 -13.6734 -13.6734 -13.6734   0.2953   0.2953   0.2953   0.2953
     5.2044   5.2044   5.2044   5.2044   8.7935   8.7935   8.7935   8.7935
     9.4296   9.4296   9.4296   9.4296

          k = 0.1360 0.7071 0.0000 ( 15444 PWs)   bands (ev):

   -14.0851 -14.0851 -14.0851 -14.0851 -13.9544 -13.9544 -13.9544 -13.9544
   -13.8612 -13.8612 -13.8612 -13.8612 -13.8051 -13.8051 -13.8051 -13.8051
   -13.6719 -13.6719 -13.6719 -13.6719   0.3001   0.3001   0.3001   0.3001
     5.1449   5.1449   5.1449   5.1449   8.9664   8.9664   8.9664   8.9664
     9.4297   9.4297   9.4297   9.4297

          k = 0.1632 0.7071 0.0000 ( 15436 PWs)   bands (ev):

   -14.0867 -14.0867 -14.0867 -14.0867 -13.9496 -13.9496 -13.9496 -13.9496
   -13.8616 -13.8616 -13.8616 -13.8616 -13.8095 -13.8095 -13.8095 -13.8095
   -13.6703 -13.6703 -13.6703 -13.6703   0.3054   0.3054   0.3054   0.3054
     5.0831   5.0831   5.0831   5.0831   9.1662   9.1662   9.1662   9.1662
     9.4301   9.4301   9.4301   9.4301

          k = 0.1904 0.7071 0.0000 ( 15420 PWs)   bands (ev):

   -14.0884 -14.0884 -14.0884 -14.0884 -13.9444 -13.9444 -13.9444 -13.9444
   -13.8621 -13.8621 -13.8621 -13.8621 -13.8141 -13.8141 -13.8141 -13.8141
   -13.6687 -13.6687 -13.6687 -13.6687   0.3108   0.3108   0.3108   0.3108
     5.0226   5.0226   5.0226   5.0226   9.3847   9.3847   9.3847   9.3847
     9.4349   9.4349   9.4349   9.4349

          k = 0.2176 0.7071 0.0000 ( 15420 PWs)   bands (ev):

   -14.0899 -14.0899 -14.0899 -14.0899 -13.9391 -13.9391 -13.9391 -13.9391
   -13.8628 -13.8628 -13.8628 -13.8628 -13.8186 -13.8186 -13.8186 -13.8186
   -13.6673 -13.6673 -13.6673 -13.6673   0.3162   0.3162   0.3162   0.3162
     4.9667   4.9667   4.9667   4.9667   9.4279   9.4279   9.4279   9.4279
     9.6341   9.6341   9.6341   9.6341

          k = 0.2448 0.7071 0.0000 ( 15420 PWs)   bands (ev):

   -14.0912 -14.0912 -14.0912 -14.0912 -13.9339 -13.9339 -13.9339 -13.9339
   -13.8637 -13.8637 -13.8637 -13.8637 -13.8229 -13.8229 -13.8229 -13.8229
   -13.6660 -13.6660 -13.6660 -13.6660   0.3211   0.3211   0.3211   0.3211
     4.9177   4.9177   4.9177   4.9177   9.4286   9.4286   9.4286   9.4286
     9.8905   9.8905   9.8905   9.8905

          k = 0.2720 0.7071 0.0000 ( 15410 PWs)   bands (ev):

   -14.0923 -14.0923 -14.0923 -14.0923 -13.9292 -13.9292 -13.9292 -13.9292
   -13.8647 -13.8647 -13.8647 -13.8647 -13.8266 -13.8266 -13.8266 -13.8266
   -13.6649 -13.6649 -13.6649 -13.6649   0.3252   0.3252   0.3252   0.3252
     4.8777   4.8777   4.8777   4.8777   9.4288   9.4288   9.4288   9.4288
    10.1566  10.1566  10.1566  10.1566

          k = 0.2992 0.7071 0.0000 ( 15396 PWs)   bands (ev):

   -14.0931 -14.0931 -14.0931 -14.0931 -13.9254 -13.9254 -13.9254 -13.9254
   -13.8658 -13.8658 -13.8658 -13.8658 -13.8294 -13.8294 -13.8294 -13.8294
   -13.6641 -13.6641 -13.6641 -13.6641   0.3284   0.3284   0.3284   0.3284
     4.8481   4.8481   4.8481   4.8481   9.4288   9.4288   9.4288   9.4288
    10.4214  10.4214  10.4214  10.4214

          k = 0.3264 0.7071 0.0000 ( 15404 PWs)   bands (ev):

   -14.0935 -14.0935 -14.0935 -14.0935 -13.9228 -13.9228 -13.9228 -13.9228
   -13.8666 -13.8666 -13.8666 -13.8666 -13.8311 -13.8311 -13.8311 -13.8311
   -13.6636 -13.6636 -13.6636 -13.6636   0.3304   0.3304   0.3304   0.3304
     4.8300   4.8300   4.8300   4.8300   9.4289   9.4289   9.4289   9.4289
    10.6559  10.6559  10.6559  10.6559

          k = 0.3536 0.7071 0.0000 ( 15368 PWs)   bands (ev):

   -14.0937 -14.0937 -14.0937 -14.0937 -13.9219 -13.9219 -13.9219 -13.9219
   -13.8669 -13.8669 -13.8669 -13.8669 -13.8317 -13.8317 -13.8317 -13.8317
   -13.6635 -13.6635 -13.6635 -13.6635   0.3311   0.3311   0.3311   0.3311
     4.8239   4.8239   4.8239   4.8239   9.4289   9.4289   9.4289   9.4289
    10.7676  10.7676  10.7676  10.7676

          k = 0.3536 0.6885 0.0186 ( 15396 PWs)   bands (ev):

   -14.0947 -14.0947 -14.0925 -14.0925 -13.9290 -13.9290 -13.9145 -13.9145
   -13.8723 -13.8723 -13.8615 -13.8615 -13.8381 -13.8381 -13.8257 -13.8257
   -13.6647 -13.6647 -13.6625 -13.6625   0.2035   0.2035   0.4594   0.4594
     4.7453   4.7453   4.9151   4.9151   9.4288   9.4288   9.4289   9.4289
    10.6289  10.6289  10.8702  10.8702

          k = 0.3536 0.6699 0.0372 ( 15392 PWs)   bands (ev):

   -14.0955 -14.0955 -14.0911 -14.0911 -13.9358 -13.9358 -13.9068 -13.9068
   -13.8775 -13.8775 -13.8567 -13.8567 -13.8442 -13.8442 -13.8200 -13.8200
   -13.6661 -13.6661 -13.6617 -13.6617   0.0780   0.0780   0.5867   0.5867
     4.6816   4.6816   5.0170   5.0170   9.4288   9.4288   9.4289   9.4289
    10.4762  10.4762  10.9050  10.9050

          k = 0.3536 0.6513 0.0558 ( 15390 PWs)   bands (ev):

   -14.0961 -14.0961 -14.0896 -14.0896 -13.9422 -13.9422 -13.8994 -13.8994
   -13.8821 -13.8821 -13.8557 -13.8557 -13.8469 -13.8469 -13.8146 -13.8146
   -13.6677 -13.6677 -13.6613 -13.6613  -0.0443  -0.0443   0.7113   0.7113
     4.6347   4.6347   5.1276   5.1276   9.4287   9.4287   9.4290   9.4290
    10.3187  10.3187  10.8721  10.8721

          k = 0.3536 0.6327 0.0744 ( 15392 PWs)   bands (ev):

   -14.0963 -14.0963 -14.0880 -14.0880 -13.9483 -13.9483 -13.8945 -13.8945
   -13.8838 -13.8838 -13.8615 -13.8615 -13.8431 -13.8431 -13.8098 -13.8098
   -13.6694 -13.6694 -13.6612 -13.6612  -0.1624  -0.1624   0.8313   0.8313
     4.6071   4.6071   5.2450   5.2450   9.4286   9.4286   9.4290   9.4290
    10.1601  10.1601  10.8062  10.8062

          k = 0.3536 0.6141 0.0930 ( 15398 PWs)   bands (ev):

   -14.0962 -14.0962 -14.0862 -14.0862 -13.9540 -13.9540 -13.8965 -13.8965
   -13.8782 -13.8782 -13.8688 -13.8688 -13.8380 -13.8380 -13.8053 -13.8053
   -13.6713 -13.6713 -13.6615 -13.6615  -0.2753  -0.2753   0.9445   0.9445
     4.6008   4.6008   5.3674   5.3674   9.4284   9.4284   9.4290   9.4290
    10.0016  10.0016  10.7326  10.7326

          k = 0.3536 0.5955 0.1116 ( 15406 PWs)   bands (ev):

   -14.0958 -14.0958 -14.0844 -14.0844 -13.9595 -13.9595 -13.9009 -13.9009
   -13.8765 -13.8765 -13.8699 -13.8699 -13.8328 -13.8328 -13.8012 -13.8012
   -13.6732 -13.6732 -13.6621 -13.6621  -0.3826  -0.3826   1.0491   1.0491
     4.6179   4.6179   5.4928   5.4928   9.4281   9.4281   9.4290   9.4290
     9.8429   9.8429  10.6631  10.6631

          k = 0.3536 0.5769 0.1303 ( 15402 PWs)   bands (ev):

   -14.0950 -14.0950 -14.0826 -14.0826 -13.9647 -13.9647 -13.9056 -13.9056
   -13.8842 -13.8842 -13.8610 -13.8610 -13.8276 -13.8276 -13.7975 -13.7975
   -13.6753 -13.6753 -13.6631 -13.6631  -0.4835  -0.4835   1.1435   1.1435
     4.6601   4.6601   5.6193   5.6193   9.4274   9.4274   9.4290   9.4290
     9.6834   9.6834  10.6034  10.6034

          k = 0.3536 0.5582 0.1489 ( 15408 PWs)   bands (ev):

   -14.0938 -14.0938 -14.0808 -14.0808 -13.9698 -13.9698 -13.9102 -13.9102
   -13.8919 -13.8919 -13.8518 -13.8518 -13.8226 -13.8226 -13.7941 -13.7941
   -13.6773 -13.6773 -13.6646 -13.6646  -0.5776  -0.5776   1.2262   1.2262
     4.7283   4.7283   5.7449   5.7449   9.4242   9.4242   9.4290   9.4290
     9.5236   9.5236  10.5563  10.5563

          k = 0.3536 0.5396 0.1675 ( 15406 PWs)   bands (ev):

   -14.0923 -14.0923 -14.0789 -14.0789 -13.9747 -13.9747 -13.9147 -13.9147
   -13.8994 -13.8994 -13.8427 -13.8427 -13.8178 -13.8178 -13.7910 -13.7910
   -13.6794 -13.6794 -13.6665 -13.6665  -0.6645  -0.6645   1.2968   1.2968
     4.8230   4.8230   5.8675   5.8675   9.3448   9.3448   9.4290   9.4290
     9.4350   9.4350  10.5236  10.5236

          k = 0.3536 0.5210 0.1861 ( 15422 PWs)   bands (ev):

   -14.0903 -14.0903 -14.0771 -14.0771 -13.9796 -13.9796 -13.9190 -13.9190
   -13.9065 -13.9065 -13.8336 -13.8336 -13.8131 -13.8131 -13.7882 -13.7882
   -13.6815 -13.6815 -13.6688 -13.6688  -0.7439  -0.7439   1.3553   1.3553
     4.9436   4.9436   5.9852   5.9852   9.1735   9.1735   9.4290   9.4290
     9.4312   9.4312  10.5064  10.5064

          k = 0.3536 0.5024 0.2047 ( 15426 PWs)   bands (ev):

   -14.0879 -14.0879 -14.0754 -14.0754 -13.9844 -13.9844 -13.9229 -13.9229
   -13.9132 -13.9132 -13.8249 -13.8249 -13.8088 -13.8088 -13.7855 -13.7855
   -13.6835 -13.6835 -13.6715 -13.6715  -0.8155  -0.8155   1.4023   1.4023
[...]
     9.4298   9.4298   9.8128   9.8128

          k = 0.1026 0.1026 0.0000 ( 15411 PWs)   bands (ev):

   -14.0476 -14.0476 -14.0431 -14.0431 -14.0363 -14.0363 -13.9796 -13.9796
   -13.9745 -13.9745 -13.7622 -13.7622 -13.7544 -13.7544 -13.7300 -13.7300
   -13.7292 -13.7292 -13.7137 -13.7137  -2.4381  -2.4381   5.3408   5.3408
     7.1095   7.1095   7.5427   7.5427   8.1807   8.1807   9.4289   9.4289
     9.4298   9.4298   9.8571   9.8571

          k = 0.1198 0.1198 0.0000 ( 15429 PWs)   bands (ev):

   -14.0502 -14.0502 -14.0449 -14.0449 -14.0353 -14.0353 -13.9770 -13.9770
   -13.9705 -13.9705 -13.7667 -13.7667 -13.7578 -13.7578 -13.7297 -13.7297
   -13.7275 -13.7275 -13.7104 -13.7104  -2.3932  -2.3932   5.0925   5.0925
     6.9514   6.9514   7.5052   7.5052   8.2675   8.2675   9.4289   9.4289
     9.4299   9.4299   9.9094   9.9094

          k = 0.1369 0.1369 0.0000 ( 15441 PWs)   bands (ev):

   -14.0527 -14.0527 -14.0470 -14.0470 -14.0339 -14.0339 -13.9743 -13.9743
   -13.9663 -13.9663 -13.7712 -13.7712 -13.7612 -13.7612 -13.7308 -13.7308
   -13.7247 -13.7247 -13.7073 -13.7073  -2.3416  -2.3416   4.8432   4.8432
     6.7850   6.7850   7.4616   7.4616   8.3474   8.3474   9.4289   9.4289
     9.4299   9.4299   9.9697   9.9697

          k = 0.1540 0.1540 0.0000 ( 15435 PWs)   bands (ev):

   -14.0553 -14.0553 -14.0493 -14.0493 -14.0321 -14.0321 -13.9715 -13.9715
   -13.9619 -13.9619 -13.7757 -13.7757 -13.7645 -13.7645 -13.7325 -13.7325
   -13.7217 -13.7217 -13.7043 -13.7043  -2.2834  -2.2834   4.5950   4.5950
     6.6135   6.6135   7.4121   7.4121   8.4220   8.4220   9.4289   9.4289
     9.4299   9.4299  10.0378  10.0378

          k = 0.1711 0.1711-0.0000 ( 15453 PWs)   bands (ev):

   -14.0577 -14.0577 -14.0519 -14.0519 -14.0299 -14.0299 -13.9687 -13.9687
   -13.9574 -13.9574 -13.7802 -13.7802 -13.7677 -13.7677 -13.7348 -13.7348
   -13.7183 -13.7183 -13.7015 -13.7015  -2.2189  -2.2189   4.3497   4.3497
     6.4395   6.4395   7.3566   7.3566   8.4926   8.4926   9.4289   9.4289
     9.4300   9.4300  10.1138  10.1138

          k = 0.1882 0.1882 0.0000 ( 15443 PWs)   bands (ev):

   -14.0601 -14.0601 -14.0547 -14.0547 -14.0272 -14.0272 -13.9659 -13.9659
   -13.9528 -13.9528 -13.7846 -13.7846 -13.7708 -13.7708 -13.7377 -13.7377
   -13.7146 -13.7146 -13.6988 -13.6988  -2.1481  -2.1481   4.1082   4.1082
     6.2652   6.2652   7.2954   7.2954   8.5603   8.5603   9.4289   9.4289
     9.4300   9.4300  10.1976  10.1976

          k = 0.2053 0.2053 0.0000 ( 15447 PWs)   bands (ev):

   -14.0624 -14.0624 -14.0577 -14.0577 -14.0240 -14.0240 -13.9631 -13.9631
   -13.9481 -13.9481 -13.7890 -13.7890 -13.7737 -13.7737 -13.7413 -13.7413
   -13.7108 -13.7108 -13.6964 -13.6964  -2.0713  -2.0713   3.8715   3.8715
     6.0924   6.0924   7.2287   7.2287   8.6254   8.6254   9.4290   9.4290
     9.4300   9.4300  10.2891  10.2891

          k = 0.2224 0.2224 0.0000 ( 15465 PWs)   bands (ev):

   -14.0645 -14.0645 -14.0608 -14.0608 -14.0204 -14.0204 -13.9604 -13.9604
   -13.9435 -13.9435 -13.7934 -13.7934 -13.7764 -13.7764 -13.7454 -13.7454
   -13.7067 -13.7067 -13.6940 -13.6940  -1.9886  -1.9886   3.6403   3.6403
     5.9226   5.9226   7.1568   7.1568   8.6878   8.6878   9.4290   9.4290
     9.4301   9.4301  10.3882  10.3882

          k = 0.2395 0.2395 0.0000 ( 15455 PWs)   bands (ev):

   -14.0665 -14.0665 -14.0641 -14.0641 -14.0164 -14.0164 -13.9578 -13.9578
   -13.9388 -13.9388 -13.7977 -13.7977 -13.7789 -13.7789 -13.7501 -13.7501
   -13.7026 -13.7026 -13.6919 -13.6919  -1.9005  -1.9005   3.4151   3.4151
     5.7572   5.7572   7.0804   7.0804   8.7471   8.7471   9.4290   9.4290
     9.4301   9.4301  10.4949  10.4949

          k = 0.2566 0.2566 0.0000 ( 15453 PWs)   bands (ev):

   -14.0683 -14.0683 -14.0674 -14.0674 -14.0120 -14.0120 -13.9552 -13.9552
   -13.9341 -13.9341 -13.8019 -13.8019 -13.7813 -13.7813 -13.7555 -13.7555
   -13.6983 -13.6983 -13.6899 -13.6899  -1.8071  -1.8071   3.1964   3.1964
     5.5974   5.5974   6.9997   6.9997   8.8025   8.8025   9.4290   9.4290
     9.4302   9.4302  10.6090  10.6090

          k = 0.2737 0.2737-0.0000 ( 15441 PWs)   bands (ev):

   -14.0708 -14.0708 -14.0700 -14.0700 -14.0073 -14.0073 -13.9525 -13.9525
   -13.9295 -13.9295 -13.8060 -13.8060 -13.7834 -13.7834 -13.7614 -13.7614
   -13.6940 -13.6940 -13.6881 -13.6881  -1.7089  -1.7089   2.9844   2.9844
     5.4441   5.4441   6.9155   6.9155   8.8529   8.8529   9.4290   9.4290
     9.4302   9.4302  10.7306  10.7306

          k = 0.2908 0.2908-0.0000 ( 15447 PWs)   bands (ev):

   -14.0742 -14.0742 -14.0715 -14.0715 -14.0023 -14.0023 -13.9498 -13.9498
   -13.9249 -13.9249 -13.8100 -13.8100 -13.7853 -13.7853 -13.7679 -13.7679
   -13.6898 -13.6898 -13.6865 -13.6865  -1.6062  -1.6062   2.7796   2.7796
     5.2983   5.2983   6.8285   6.8285   8.8973   8.8973   9.4290   9.4290
     9.4303   9.4303  10.8593  10.8593

          k = 0.3079 0.3079 0.0000 ( 15427 PWs)   bands (ev):

   -14.0775 -14.0775 -14.0729 -14.0729 -13.9972 -13.9972 -13.9469 -13.9469
   -13.9204 -13.9204 -13.8139 -13.8139 -13.7871 -13.7871 -13.7749 -13.7749
   -13.6856 -13.6856 -13.6850 -13.6850  -1.4995  -1.4995   2.5821   2.5821
     5.1609   5.1609   6.7391   6.7391   8.9341   8.9341   9.4290   9.4290
     9.4303   9.4303  10.9952  10.9952

          k = 0.3250 0.3250 0.0000 ( 15423 PWs)   bands (ev):

   -14.0807 -14.0807 -14.0742 -14.0742 -13.9921 -13.9921 -13.9437 -13.9437
   -13.9160 -13.9160 -13.8177 -13.8177 -13.7889 -13.7889 -13.7821 -13.7821
   -13.6836 -13.6836 -13.6816 -13.6816  -1.3894  -1.3894   2.3921   2.3921
     5.0328   5.0328   6.6482   6.6482   8.9623   8.9623   9.4290   9.4290
     9.4303   9.4303  11.1380  11.1380

          k = 0.3421 0.3421 0.0000 ( 15427 PWs)   bands (ev):

   -14.0838 -14.0838 -14.0753 -14.0753 -13.9872 -13.9872 -13.9401 -13.9401
   -13.9117 -13.9117 -13.8214 -13.8214 -13.7926 -13.7926 -13.7879 -13.7879
   -13.6824 -13.6824 -13.6778 -13.6778  -1.2766  -1.2766   2.2097   2.2097
     4.9148   4.9148   6.5565   6.5565   8.9809   8.9809   9.4290   9.4290
     9.4303   9.4303  11.2876  11.2876

          k = 0.3593 0.3593 0.0000 ( 15421 PWs)   bands (ev):

   -14.0868 -14.0868 -14.0763 -14.0763 -13.9827 -13.9827 -13.9358 -13.9358
   -13.9075 -13.9075 -13.8249 -13.8249 -13.8001 -13.8001 -13.7899 -13.7899
   -13.6814 -13.6814 -13.6742 -13.6742  -1.1616  -1.1616   2.0353   2.0353
     4.8077   4.8077   6.4646   6.4646   8.9895   8.9895   9.4290   9.4290
     9.4303   9.4303  11.4439  11.4439

          k = 0.3764 0.3764-0.0000 ( 15429 PWs)   bands (ev):

   -14.0894 -14.0894 -14.0771 -14.0771 -13.9788 -13.9788 -13.9307 -13.9307
   -13.9034 -13.9034 -13.8283 -13.8283 -13.8089 -13.8089 -13.7910 -13.7910
   -13.6804 -13.6804 -13.6709 -13.6709  -1.0452  -1.0452   1.8687   1.8687
     4.7125   4.7125   6.3732   6.3732   8.9879   8.9879   9.4290   9.4290
     9.4302   9.4302  11.6066  11.6066

          k = 0.3935 0.3935-0.0000 ( 15433 PWs)   bands (ev):

   -14.0918 -14.0918 -14.0778 -14.0778 -13.9754 -13.9754 -13.9248 -13.9248
   -13.8994 -13.8994 -13.8315 -13.8315 -13.8182 -13.8182 -13.7918 -13.7918
   -13.6796 -13.6796 -13.6679 -13.6679  -0.9285  -0.9285   1.7102   1.7102
     4.6300   4.6300   6.2828   6.2828   8.9768   8.9768   9.4291   9.4291
     9.4301   9.4301  11.7754  11.7754

          k = 0.4106 0.4106 0.0000 ( 15405 PWs)   bands (ev):

   -14.0939 -14.0939 -14.0784 -14.0784 -13.9728 -13.9728 -13.9180 -13.9180
   -13.8956 -13.8956 -13.8345 -13.8345 -13.8278 -13.8278 -13.7925 -13.7925
   -13.6789 -13.6789 -13.6653 -13.6653  -0.8122  -0.8122   1.5599   1.5599
     4.5610   4.5610   6.1942   6.1942   8.9570   8.9570   9.4291   9.4291
     9.4300   9.4300  11.9501  11.9501

          k = 0.4277 0.4277 0.0000 ( 15389 PWs)   bands (ev):

   -14.0957 -14.0957 -14.0789 -14.0789 -13.9707 -13.9707 -13.9105 -13.9105
   -13.8919 -13.8919 -13.8377 -13.8377 -13.8374 -13.8374 -13.7930 -13.7930
   -13.6784 -13.6784 -13.6632 -13.6632  -0.6975  -0.6975   1.4177   1.4177
     4.5064   4.5064   6.1078   6.1078   8.9300   8.9300   9.4291   9.4291
     9.4299   9.4299  12.0766  12.0766

          k = 0.4448 0.4448 0.0000 ( 15403 PWs)   bands (ev):

   -14.0970 -14.0970 -14.0793 -14.0793 -13.9692 -13.9692 -13.9023 -13.9023
   -13.8884 -13.8884 -13.8479 -13.8479 -13.8402 -13.8402 -13.7933 -13.7933
   -13.6779 -13.6779 -13.6615 -13.6615  -0.5854  -0.5854   1.2838   1.2838
     4.4672   4.4672   6.0242   6.0242   8.8972   8.8972   9.4290   9.4290
     9.4298   9.4298  12.1742  12.1742

          k = 0.4619 0.4619 0.0000 ( 15403 PWs)   bands (ev):

   -14.0980 -14.0980 -14.0797 -14.0797 -13.9681 -13.9681 -13.8936 -13.8936
   -13.8850 -13.8850 -13.8582 -13.8582 -13.8427 -13.8427 -13.7936 -13.7936
   -13.6775 -13.6775 -13.6602 -13.6602  -0.4771  -0.4771   1.1582   1.1582
     4.4440   4.4440   5.9438   5.9438   8.8601   8.8601   9.4290   9.4290
     9.4298   9.4298  12.0408  12.0408

          k = 0.4790 0.4790-0.0000 ( 15402 PWs)   bands (ev):

   -14.0985 -14.0985 -14.0799 -14.0799 -13.9674 -13.9674 -13.8846 -13.8846
   -13.8819 -13.8819 -13.8686 -13.8686 -13.8451 -13.8451 -13.7937 -13.7937
   -13.6772 -13.6772 -13.6594 -13.6594  -0.3735  -0.3735   1.0410   1.0410
     4.4375   4.4375   5.8671   5.8671   8.8201   8.8201   9.4290   9.4290
     9.4297   9.4297  11.7934  11.7934

          k = 0.4961 0.4961-0.0000 ( 15414 PWs)   bands (ev):

   -14.0985 -14.0985 -14.0801 -14.0801 -13.9668 -13.9668 -13.8790 -13.8790
   -13.8789 -13.8789 -13.8754 -13.8754 -13.8474 -13.8474 -13.7938 -13.7938
   -13.6770 -13.6770 -13.6592 -13.6592  -0.2759  -0.2759   0.9321   0.9321
     4.4482   4.4482   5.7945   5.7945   8.7787   8.7787   9.4290   9.4290
     9.4296   9.4296  11.4847  11.4847

          k = 0.5132 0.5132 0.0000 ( 15406 PWs)   bands (ev):

   -14.0982 -14.0982 -14.0802 -14.0802 -13.9665 -13.9665 -13.8894 -13.8894
   -13.8761 -13.8761 -13.8660 -13.8660 -13.8494 -13.8494 -13.7939 -13.7939
   -13.6768 -13.6768 -13.6594 -13.6594  -0.1850  -0.1850   0.8317   0.8317
     4.4762   4.4762   5.7262   5.7262   8.7369   8.7369   9.4290   9.4290
     9.4296   9.4296  11.1509  11.1509

          k = 0.5303 0.5303 0.0000 ( 15410 PWs)   bands (ev):

   -14.0974 -14.0974 -14.0803 -14.0803 -13.9664 -13.9664 -13.8996 -13.8996
   -13.8735 -13.8735 -13.8567 -13.8567 -13.8513 -13.8513 -13.7939 -13.7939
   -13.6767 -13.6767 -13.6600 -13.6600  -0.1016  -0.1016   0.7397   0.7397
     4.5213   4.5213   5.6628   5.6628   8.6959   8.6959   9.4290   9.4290
     9.4296   9.4296  10.8100  10.8100

          k = 0.5205 0.5205 0.0196 ( 15410 PWs)   bands (ev):

   -14.0978 -14.0978 -14.0802 -14.0802 -13.9668 -13.9668 -13.8933 -13.8933
   -13.8761 -13.8761 -13.8624 -13.8624 -13.8491 -13.8491 -13.7935 -13.7935
   -13.6768 -13.6768 -13.6597 -13.6597  -0.1614  -0.1614   0.8048   0.8048
     4.4985   4.4985   5.7007   5.7007   8.7211   8.7211   9.4290   9.4290
     9.4296   9.4296  11.0059  11.0059

          k = 0.5107 0.5107 0.0393 ( 15402 PWs)   bands (ev):

   -14.0979 -14.0979 -14.0799 -14.0799 -13.9679 -13.9679 -13.8866 -13.8866
   -13.8803 -13.8803 -13.8684 -13.8684 -13.8453 -13.8453 -13.7927 -13.7927
   -13.6772 -13.6772 -13.6597 -13.6597  -0.2399  -0.2399   0.8886   0.8886
     4.4928   4.4928   5.7444   5.7444   8.7498   8.7498   9.4290   9.4290
     9.4296   9.4296  11.1968  11.1968

          k = 0.5009 0.5009 0.0589 ( 15398 PWs)   bands (ev):

   -14.0977 -14.0977 -14.0795 -14.0795 -13.9694 -13.9694 -13.8851 -13.8851
   -13.8820 -13.8820 -13.8721 -13.8721 -13.8409 -13.8409 -13.7916 -13.7916
   -13.6777 -13.6777 -13.6601 -13.6601  -0.3262  -0.3262   0.9787   0.9787
     4.5057   4.5057   5.7933   5.7933   8.7805   8.7805   9.4290   9.4290
     9.4296   9.4296  11.3669  11.3669

          k = 0.4910 0.4910 0.0786 ( 15402 PWs)   bands (ev):

   -14.0971 -14.0971 -14.0790 -14.0790 -13.9713 -13.9713 -13.8903 -13.8903
   -13.8855 -13.8855 -13.8674 -13.8674 -13.8362 -13.8362 -13.7904 -13.7904
   -13.6785 -13.6785 -13.6609 -13.6609  -0.4143  -0.4143   1.0677   1.0677
     4.5387   4.5387   5.8470   5.8470   8.8111   8.8111   9.4290   9.4290
     9.4297   9.4297  11.4763  11.4763

          k = 0.4812 0.4812 0.0982 ( 15412 PWs)   bands (ev):

   -14.0962 -14.0962 -14.0783 -14.0783 -13.9735 -13.9735 -13.8956 -13.8956
   -13.8920 -13.8920 -13.8595 -13.8595 -13.8313 -13.8313 -13.7890 -13.7890
   -13.6794 -13.6794 -13.6620 -13.6620  -0.5008  -0.5008   1.1510   1.1510
     4.5928   4.5928   5.9049   5.9049   8.8385   8.8385   9.4290   9.4290
     9.4297   9.4297  11.4625  11.4625

          k = 0.4714 0.4714 0.1179 ( 15430 PWs)   bands (ev):

   -14.0949 -14.0949 -14.0775 -14.0775 -13.9759 -13.9759 -13.9008 -13.9008
   -13.8987 -13.8987 -13.8511 -13.8511 -13.8265 -13.8265 -13.7876 -13.7876
   -13.6804 -13.6804 -13.6635 -13.6635  -0.5836  -0.5836   1.2260   1.2260
     4.6686   4.6686   5.9663   5.9663   8.8582   8.8582   9.4290   9.4290
     9.4298   9.4298  11.3313  11.3313

          k = 0.4616 0.4616 0.1375 ( 15417 PWs)   bands (ev):

   -14.0933 -14.0933 -14.0766 -14.0766 -13.9787 -13.9787 -13.9059 -13.9059
   -13.9053 -13.9053 -13.8426 -13.8426 -13.8217 -13.8217 -13.7863 -13.7863
   -13.6816 -13.6816 -13.6654 -13.6654  -0.6616  -0.6616   1.2913   1.2913
     4.7661   4.7661   6.0304   6.0304   8.8641   8.8641   9.4290   9.4290
     9.4299   9.4299  11.1545  11.1545

          k = 0.4518 0.4518 0.1571 ( 15425 PWs)   bands (ev):

   -14.0914 -14.0914 -14.0756 -14.0756 -13.9817 -13.9817 -13.9114 -13.9114
   -13.9109 -13.9109 -13.8341 -13.8341 -13.8171 -13.8171 -13.7849 -13.7849
   -13.6829 -13.6829 -13.6677 -13.6677  -0.7341  -0.7341   1.3465   1.3465
     4.8847   4.8847   6.0963   6.0963   8.8484   8.8484   9.4290   9.4290
     9.4299   9.4299  10.9797  10.9797

          k = 0.4419 0.4419 0.1768 ( 15424 PWs)   bands (ev):

   -14.0891 -14.0891 -14.0745 -14.0745 -13.9851 -13.9851 -13.9171 -13.9171
   -13.9157 -13.9157 -13.8259 -13.8259 -13.8127 -13.8127 -13.7834 -13.7834
   -13.6842 -13.6842 -13.6702 -13.6702  -0.8004  -0.8004   1.3918   1.3918
     5.0230   5.0230   6.1630   6.1630   8.8025   8.8025   9.4290   9.4290
     9.4299   9.4299  10.8309  10.8309

          k = 0.4321 0.4321 0.1964 ( 15408 PWs)   bands (ev):

   -14.0865 -14.0865 -14.0734 -14.0734 -13.9889 -13.9889 -13.9221 -13.9221
   -13.9202 -13.9202 -13.8181 -13.8181 -13.8085 -13.8085 -13.7819 -13.7819
   -13.6857 -13.6857 -13.6731 -13.6731  -0.8603  -0.8603   1.4281   1.4281
     5.1795   5.1795   6.2292   6.2292   8.7193   8.7193   9.4291   9.4291
     9.4299   9.4299  10.7210  10.7210

          k = 0.4223 0.4223 0.2161 ( 15407 PWs)   bands (ev):

   -14.0838 -14.0838 -14.0723 -14.0723 -13.9928 -13.9928 -13.9265 -13.9265
   -13.9243 -13.9243 -13.8109 -13.8109 -13.8045 -13.8045 -13.7802 -13.7802
   -13.6871 -13.6871 -13.6762 -13.6762  -0.9136  -0.9136   1.4565   1.4565
     5.3520   5.3520   6.2934   6.2934   8.5966   8.5966   9.4291   9.4291
     9.4299   9.4299  10.6546  10.6546

          k = 0.4125 0.4125 0.2357 ( 15411 PWs)   bands (ev):

   -14.0808 -14.0808 -14.0712 -14.0712 -13.9970 -13.9970 -13.9301 -13.9301
   -13.9281 -13.9281 -13.8046 -13.8046 -13.8010 -13.8010 -13.7781 -13.7781
   -13.6885 -13.6885 -13.6794 -13.6794  -0.9600  -0.9600   1.4780   1.4780
     5.5380   5.5380   6.3543   6.3543   8.4380   8.4380   9.4291   9.4291
     9.4298   9.4298  10.6282  10.6282

          k = 0.4027 0.4027 0.2553 ( 15408 PWs)   bands (ev):

   -14.0777 -14.0777 -14.0702 -14.0702 -14.0013 -14.0013 -13.9331 -13.9331
   -13.9314 -13.9314 -13.7995 -13.7995 -13.7978 -13.7978 -13.7756 -13.7756
   -13.6898 -13.6898 -13.6827 -13.6827  -0.9994  -0.9994   1.4941   1.4941
     5.7344   5.7344   6.4100   6.4100   8.2519   8.2519   9.4291   9.4291
     9.4297   9.4297  10.6330  10.6330

          k = 0.3928 0.3928 0.2750 ( 15408 PWs)   bands (ev):

   -14.0747 -14.0747 -14.0693 -14.0693 -14.0054 -14.0054 -13.9355 -13.9355
   -13.9342 -13.9342 -13.7956 -13.7956 -13.7951 -13.7951 -13.7727 -13.7727
   -13.6909 -13.6909 -13.6859 -13.6859  -1.0318  -1.0318   1.5056   1.5056
     5.9374   5.9374   6.4588   6.4588   8.0487   8.0487   9.4291   9.4291
     9.4297   9.4297  10.6580  10.6580

          k = 0.3830 0.3830 0.2946 ( 15408 PWs)   bands (ev):

   -14.0719 -14.0719 -14.0686 -14.0686 -14.0091 -14.0091 -13.9372 -13.9372
   -13.9364 -13.9364 -13.7930 -13.7930 -13.7929 -13.7929 -13.7697 -13.7697
   -13.6919 -13.6919 -13.6888 -13.6888  -1.0570  -1.0570   1.5136   1.5136
     6.1408   6.1408   6.4990   6.4990   7.8401   7.8401   9.4291   9.4291
     9.4296   9.4296  10.6920  10.6920

          k = 0.3732 0.3732 0.3143 ( 15403 PWs)   bands (ev):

   -14.0696 -14.0696 -14.0680 -14.0680 -14.0121 -14.0121 -13.9385 -13.9385
   -13.9381 -13.9381 -13.7914 -13.7914 -13.7913 -13.7913 -13.7669 -13.7669
   -13.6926 -13.6926 -13.6911 -13.6911  -1.0751  -1.0751   1.5187   1.5187
     6.3331   6.3331   6.5290   6.5290   7.6415   7.6415   9.4291   9.4291
     9.4296   9.4296  10.7250  10.7250

          k = 0.3634 0.3634 0.3339 ( 15384 PWs)   bands (ev):

   -14.0681 -14.0681 -14.0676 -14.0676 -14.0141 -14.0141 -13.9392 -13.9392
   -13.9391 -13.9391 -13.7904 -13.7904 -13.7904 -13.7904 -13.7651 -13.7651
   -13.6931 -13.6931 -13.6927 -13.6927  -1.0859  -1.0859   1.5216   1.5216
     6.4886   6.4886   6.5476   6.5476   7.4814   7.4814   9.4291   9.4291
     9.4296   9.4296  10.7487  10.7487

          k = 0.3536 0.3536 0.3536 ( 15406 PWs)   bands (ev):

   -14.0675 -14.0675 -14.0675 -14.0675 -14.0148 -14.0148 -13.9394 -13.9394
   -13.9394 -13.9394 -13.7901 -13.7901 -13.7901 -13.7901 -13.7644 -13.7644
   -13.6932 -13.6932 -13.6932 -13.6932  -1.0896  -1.0896   1.5225   1.5225
     6.5539   6.5539   6.5539   6.5539   7.4143   7.4143   9.4291   9.4291
     9.4296   9.4296  10.7573  10.7573

     Writing output data file Sn.save
 
     init_run     :      0.90s CPU      1.66s WALL (       1 calls)
     electrons    :    338.71s CPU    408.05s WALL (       1 calls)

     Called by init_run:
     wfcinit      :      0.00s CPU      0.01s WALL (       1 calls)
     potinit      :      0.08s CPU      0.11s WALL (       1 calls)

     Called by electrons:
     c_bands      :    338.71s CPU    408.02s WALL (       1 calls)
     v_of_rho     :      0.02s CPU      0.02s WALL (       1 calls)
     v_h          :      0.00s CPU      0.00s WALL (       1 calls)
     v_xc         :      0.02s CPU      0.02s WALL (       1 calls)

     Called by c_bands:
     init_us_2    :      0.02s CPU      0.02s WALL (     134 calls)
     cegterg      :    321.33s CPU    386.66s WALL (     251 calls)

     Called by sum_band:

     Called by *egterg:
     h_psi        :    292.07s CPU    360.49s WALL (    3901 calls)
     g_psi        :      0.28s CPU      0.28s WALL (    3516 calls)
     cdiaghg      :     17.14s CPU     17.18s WALL (    3650 calls)
     cegterg:over :     18.06s CPU     18.11s WALL (    3516 calls)
     cegterg:upda :      3.08s CPU      3.10s WALL (    3516 calls)
     cegterg:last :      1.87s CPU      1.87s WALL (     865 calls)

     Called by h_psi:
     h_psi:vloc   :    284.39s CPU    352.70s WALL (    3901 calls)
     h_psi:vnl    :      7.49s CPU      7.59s WALL (    3901 calls)
     add_vuspsi   :      1.10s CPU      1.12s WALL (    3901 calls)

     General routines
     calbec       :      6.36s CPU      6.44s WALL (    3901 calls)
     fft          :      0.05s CPU      0.05s WALL (      13 calls)
     fftw         :    279.71s CPU    347.65s WALL (  376528 calls)
     davcio       :      0.04s CPU      0.28s WALL (     134 calls)
 
     Parallel routines
     fft_scatter  :    236.96s CPU    300.37s WALL (  376541 calls)
 
     PWSCF        :  5m43.54s CPU     6m53.76s WALL

 
   This run was terminated on:  22:26:51  18Mar2020            

=------------------------------------------------------------------------------=
   JOB DONE.
=------------------------------------------------------------------------------=
