
     Program PWSCF v.5.4.0 starts on 15Mar2020 at 19:57:11 

     This program is part of the open-source Quantum ESPRESSO suite
     for quantum simulation of materials; please cite
         "P. Giannozzi et al., J. Phys.:Condens. Matter 21 395502 (2009);
          URL http://www.quantum-espresso.org", 
     in publications or presentations arising from this work. More details at
     http://www.quantum-espresso.org/quote

     Parallel version (MPI & OpenMP), running on      16 processor cores
     Number of MPI processes:                16
     Threads/MPI process:                     1
     R & G space division:  proc/nbgrp/npool/nimage =      16
     Waiting for input...
     Reading input from standard input
Warning: card &IONS ignored
Warning: card / ignored
Warning: card &CELL ignored
Warning: card / ignored

     Current dimensions of program PWSCF are:
     Max number of different atomic species (ntypx) = 10
     Max number of k-points (npk) =  40000
     Max angular momentum in pseudopotentials (lmaxx) =  3
               file Sn.pbe-dn-kjpaw_psl.0.2.UPF: wavefunction(s)  5P 4D renormalized
     Message from routine setup:
     At least one non s.o. pseudo

     Subspace diagonalization in iterative solution of the eigenvalue problem:
     a serial algorithm will be used

 
     Parallelization info
     --------------------
     sticks:   dense  smooth     PW     G-vecs:    dense   smooth      PW
     Min          88      88     26                 2220     2220     349
     Max          89      89     27                 2224     2224     352
     Sum        1417    1417    421                35557    35557    5601
 

     Title: 
     Sn                                                                         


     bravais-lattice index     =            0
     lattice parameter (alat)  =       8.9127  a.u.
     unit-cell volume          =     500.6268 (a.u.)^3
     number of atoms/cell      =            2
     number of atomic types    =            1
     number of electrons       =        28.00
     number of Kohn-Sham states=           36
     kinetic-energy cutoff     =      65.0000  Ry
     charge density cutoff     =     260.0000  Ry
     convergence threshold     =      1.0E-06
     mixing beta               =       0.7000
     number of iterations used =            8  plain     mixing
     Exchange-correlation      =  SLA  PW   PBX  PBC ( 1  4  3  4 0 0)
     Non magnetic calculation with spin-orbit


     celldm(1)=   8.912709  celldm(2)=   0.000000  celldm(3)=   0.000000
     celldm(4)=   0.000000  celldm(5)=   0.000000  celldm(6)=   0.000000

     crystal axes: (cart. coord. in units of alat)
               a(1) = (   0.000000   0.707107   0.707107 )  
               a(2) = (   0.707107   0.000000   0.707107 )  
               a(3) = (   0.707107   0.707107   0.000000 )  

     reciprocal axes: (cart. coord. in units 2 pi/alat)
               b(1) = ( -0.707107  0.707107  0.707107 )  
               b(2) = (  0.707107 -0.707107  0.707107 )  
               b(3) = (  0.707107  0.707107 -0.707107 )  


     PseudoPot. # 1 for Sn read from file:
     ../PseudopotentialDatabase/Sn.pbe-dn-kjpaw_psl.0.2.UPF
     MD5 check sum: b79c227927c2421b8b427190f2e58519
     Pseudo is Projector augmented-wave + core cor, Zval = 14.0
     Generated using "atomic" code by A. Dal Corso  v.5.0.2 svn rev. 9415
     Shape of augmentation charge: BESSEL
     Using radial grid of 1243 points,  6 beta functions with: 
                l(1) =   0
                l(2) =   0
                l(3) =   1
                l(4) =   1
                l(5) =   2
                l(6) =   2
     Q(r) pseudized with 0 coefficients 


     atomic species   valence    mass     pseudopotential
        Sn            14.00   118.71000     Sn( 1.00)

     24 Sym. Ops. (no inversion) found
          (note: 24 additional sym.ops. were found but ignored
           their fractional translations are incommensurate with FFT grid)

                                    s                        frac. trans.

      isym =  1     identity                                     

 cryst.   s( 1) = (     1          0          0      )
                  (     0          1          0      )
                  (     0          0          1      )

 cart.    s( 1) = (  1.0000000  0.0000000  0.0000000 )
                  (  0.0000000  1.0000000  0.0000000 )
                  (  0.0000000  0.0000000  1.0000000 )


      isym =  2     180 deg rotation - cart. axis [0,0,1]        

 cryst.   s( 2) = (     0          1         -1      )
                  (     1          0         -1      )
                  (     0          0         -1      )

 cart.    s( 2) = ( -1.0000000  0.0000000  0.0000000 )
                  (  0.0000000 -1.0000000  0.0000000 )
                  (  0.0000000  0.0000000  1.0000000 )


      isym =  3     180 deg rotation - cart. axis [0,1,0]        

 cryst.   s( 3) = (     0         -1          1      )
                  (     0         -1          0      )
                  (     1         -1          0      )

 cart.    s( 3) = ( -1.0000000  0.0000000  0.0000000 )
                  (  0.0000000  1.0000000  0.0000000 )
                  (  0.0000000  0.0000000 -1.0000000 )


      isym =  4     180 deg rotation - cart. axis [1,0,0]        

 cryst.   s( 4) = (    -1          0          0      )
                  (    -1          0          1      )
                  (    -1          1          0      )

 cart.    s( 4) = (  1.0000000  0.0000000  0.0000000 )
                  (  0.0000000 -1.0000000  0.0000000 )
                  (  0.0000000  0.0000000 -1.0000000 )


      isym =  5     120 deg rotation - cart. axis [-1,-1,-1]     

 cryst.   s( 5) = (     0          0          1      )
                  (     1          0          0      )
                  (     0          1          0      )

 cart.    s( 5) = (  0.0000000  1.0000000  0.0000000 )
                  (  0.0000000  0.0000000  1.0000000 )
                  (  1.0000000  0.0000000  0.0000000 )


      isym =  6     120 deg rotation - cart. axis [-1,1,1]       

 cryst.   s( 6) = (     1         -1          0      )
                  (     0         -1          1      )
                  (     0         -1          0      )

 cart.    s( 6) = (  0.0000000 -1.0000000  0.0000000 )
                  (  0.0000000  0.0000000  1.0000000 )
                  ( -1.0000000  0.0000000  0.0000000 )


      isym =  7     120 deg rotation - cart. axis [1,1,-1]       

 cryst.   s( 7) = (    -1          1          0      )
                  (    -1          0          0      )
                  (    -1          0          1      )

 cart.    s( 7) = (  0.0000000  1.0000000  0.0000000 )
                  (  0.0000000  0.0000000 -1.0000000 )
                  ( -1.0000000  0.0000000  0.0000000 )


      isym =  8     120 deg rotation - cart. axis [1,-1,1]       

 cryst.   s( 8) = (     0          0         -1      )
                  (     0          1         -1      )
                  (     1          0         -1      )

 cart.    s( 8) = (  0.0000000 -1.0000000  0.0000000 )
                  (  0.0000000  0.0000000 -1.0000000 )
                  (  1.0000000  0.0000000  0.0000000 )


      isym =  9     120 deg rotation - cart. axis [1,1,1]        

 cryst.   s( 9) = (     0          1          0      )
                  (     0          0          1      )
                  (     1          0          0      )

 cart.    s( 9) = (  0.0000000  0.0000000  1.0000000 )
                  (  1.0000000  0.0000000  0.0000000 )
                  (  0.0000000  1.0000000  0.0000000 )


      isym = 10     120 deg rotation - cart. axis [-1,1,-1]      

 cryst.   s(10) = (    -1          0          1      )
                  (    -1          1          0      )
                  (    -1          0          0      )

 cart.    s(10) = (  0.0000000  0.0000000  1.0000000 )
                  ( -1.0000000  0.0000000  0.0000000 )
                  (  0.0000000 -1.0000000  0.0000000 )


      isym = 11     120 deg rotation - cart. axis [1,-1,-1]      

 cryst.   s(11) = (     1          0         -1      )
                  (     0          0         -1      )
                  (     0          1         -1      )

 cart.    s(11) = (  0.0000000  0.0000000 -1.0000000 )
                  ( -1.0000000  0.0000000  0.0000000 )
                  (  0.0000000  1.0000000  0.0000000 )


      isym = 12     120 deg rotation - cart. axis [-1,-1,1]      

 cryst.   s(12) = (     0         -1          0      )
                  (     1         -1          0      )
                  (     0         -1          1      )

 cart.    s(12) = (  0.0000000  0.0000000 -1.0000000 )
                  (  1.0000000  0.0000000  0.0000000 )
                  (  0.0000000 -1.0000000  0.0000000 )


      isym = 13     inv. 180 deg rotation - cart. axis [1,1,0]   

 cryst.   s(13) = (     1          0         -1      )
                  (     0          1         -1      )
                  (     0          0         -1      )

 cart.    s(13) = (  0.0000000 -1.0000000  0.0000000 )
                  ( -1.0000000  0.0000000  0.0000000 )
                  (  0.0000000  0.0000000  1.0000000 )


      isym = 14     inv. 180 deg rotation - cart. axis [1,-1,0]  

 cryst.   s(14) = (     0          1          0      )
                  (     1          0          0      )
                  (     0          0          1      )

 cart.    s(14) = (  0.0000000  1.0000000  0.0000000 )
                  (  1.0000000  0.0000000  0.0000000 )
                  (  0.0000000  0.0000000  1.0000000 )


      isym = 15     inv.  90 deg rotation - cart. axis [0,0,-1]  

 cryst.   s(15) = (     0         -1          0      )
                  (     0         -1          1      )
                  (     1         -1          0      )

 cart.    s(15) = (  0.0000000 -1.0000000  0.0000000 )
                  (  1.0000000  0.0000000  0.0000000 )
                  (  0.0000000  0.0000000 -1.0000000 )


      isym = 16     inv.  90 deg rotation - cart. axis [0,0,1]   

 cryst.   s(16) = (    -1          0          1      )
                  (    -1          0          0      )
                  (    -1          1          0      )

 cart.    s(16) = (  0.0000000  1.0000000  0.0000000 )
                  ( -1.0000000  0.0000000  0.0000000 )
                  (  0.0000000  0.0000000 -1.0000000 )


      isym = 17     inv. 180 deg rotation - cart. axis [1,0,1]   

 cryst.   s(17) = (     1         -1          0      )
                  (     0         -1          0      )
                  (     0         -1          1      )

 cart.    s(17) = (  0.0000000  0.0000000 -1.0000000 )
                  (  0.0000000  1.0000000  0.0000000 )
                  ( -1.0000000  0.0000000  0.0000000 )


      isym = 18     inv. 180 deg rotation - cart. axis [-1,0,1]  

 cryst.   s(18) = (     0          0          1      )
                  (     0          1          0      )
                  (     1          0          0      )

 cart.    s(18) = (  0.0000000  0.0000000  1.0000000 )
                  (  0.0000000  1.0000000  0.0000000 )
                  (  1.0000000  0.0000000  0.0000000 )


      isym = 19     inv.  90 deg rotation - cart. axis [0,1,0]   

 cryst.   s(19) = (     0          0         -1      )
                  (     1          0         -1      )
                  (     0          1         -1      )

 cart.    s(19) = (  0.0000000  0.0000000 -1.0000000 )
                  (  0.0000000 -1.0000000  0.0000000 )
                  (  1.0000000  0.0000000  0.0000000 )


      isym = 20     inv.  90 deg rotation - cart. axis [0,-1,0]  

 cryst.   s(20) = (    -1          1          0      )
                  (    -1          0          1      )
                  (    -1          0          0      )

 cart.    s(20) = (  0.0000000  0.0000000  1.0000000 )
                  (  0.0000000 -1.0000000  0.0000000 )
                  ( -1.0000000  0.0000000  0.0000000 )


      isym = 21     inv. 180 deg rotation - cart. axis [0,1,1]   

 cryst.   s(21) = (    -1          0          0      )
                  (    -1          1          0      )
                  (    -1          0          1      )

 cart.    s(21) = (  1.0000000  0.0000000  0.0000000 )
                  (  0.0000000  0.0000000 -1.0000000 )
                  (  0.0000000 -1.0000000  0.0000000 )


      isym = 22     inv. 180 deg rotation - cart. axis [0,1,-1]  

 cryst.   s(22) = (     1          0          0      )
                  (     0          0          1      )
                  (     0          1          0      )

 cart.    s(22) = (  1.0000000  0.0000000  0.0000000 )
                  (  0.0000000  0.0000000  1.0000000 )
                  (  0.0000000  1.0000000  0.0000000 )


      isym = 23     inv.  90 deg rotation - cart. axis [-1,0,0]  

 cryst.   s(23) = (     0          1         -1      )
                  (     0          0         -1      )
                  (     1          0         -1      )

 cart.    s(23) = ( -1.0000000  0.0000000  0.0000000 )
                  (  0.0000000  0.0000000 -1.0000000 )
                  (  0.0000000  1.0000000  0.0000000 )


      isym = 24     inv.  90 deg rotation - cart. axis [1,0,0]   

 cryst.   s(24) = (     0         -1          1      )
                  (     1         -1          0      )
                  (     0         -1          0      )

 cart.    s(24) = ( -1.0000000  0.0000000  0.0000000 )
                  (  0.0000000  0.0000000  1.0000000 )
                  (  0.0000000 -1.0000000  0.0000000 )


   Cartesian axes

     site n.     atom                  positions (alat units)
         1           Sn  tau(   1) = (   0.0000000   0.0000000   0.0000000  )
         2           Sn  tau(   2) = (   0.3535534   0.3535534   0.3535534  )

   Crystallographic axes

     site n.     atom                  positions (cryst. coord.)
         1           Sn  tau(   1) = (  0.0000000  0.0000000  0.0000000  )
         2           Sn  tau(   2) = (  0.2500000  0.2500000  0.2500000  )

     number of k points=   145  gaussian smearing, width (Ry)=  0.0001
                       cart. coord. in units 2pi/alat
        k(    1) = (   0.0000000   0.0000000   0.0000000), wk =   0.0002441
        k(    2) = (   0.0441942   0.0441942  -0.0441942), wk =   0.0019531
        k(    3) = (   0.0883883   0.0883883  -0.0883883), wk =   0.0019531
        k(    4) = (   0.1325825   0.1325825  -0.1325825), wk =   0.0019531
        k(    5) = (   0.1767767   0.1767767  -0.1767767), wk =   0.0019531
        k(    6) = (   0.2209709   0.2209709  -0.2209709), wk =   0.0019531
        k(    7) = (   0.2651650   0.2651650  -0.2651650), wk =   0.0019531
        k(    8) = (   0.3093592   0.3093592  -0.3093592), wk =   0.0019531
        k(    9) = (  -0.3535534  -0.3535534   0.3535534), wk =   0.0009766
        k(   10) = (   0.0883883   0.0000000   0.0000000), wk =   0.0014648
        k(   11) = (   0.1325825   0.0441942  -0.0441942), wk =   0.0058594
        k(   12) = (   0.1767767   0.0883883  -0.0883883), wk =   0.0058594
        k(   13) = (   0.2209709   0.1325825  -0.1325825), wk =   0.0058594
        k(   14) = (   0.2651650   0.1767767  -0.1767767), wk =   0.0058594
        k(   15) = (   0.3093592   0.2209709  -0.2209709), wk =   0.0058594
        k(   16) = (   0.3535534   0.2651650  -0.2651650), wk =   0.0058594
        k(   17) = (  -0.3093592  -0.3977476   0.3977476), wk =   0.0058594
        k(   18) = (  -0.2651650  -0.3535534   0.3535534), wk =   0.0058594
        k(   19) = (  -0.2209709  -0.3093592   0.3093592), wk =   0.0058594
        k(   20) = (  -0.1767767  -0.2651650   0.2651650), wk =   0.0058594
        k(   21) = (  -0.1325825  -0.2209709   0.2209709), wk =   0.0058594
        k(   22) = (  -0.0883883  -0.1767767   0.1767767), wk =   0.0058594
        k(   23) = (  -0.0441942  -0.1325825   0.1325825), wk =   0.0058594
        k(   24) = (   0.0000000  -0.0883883   0.0883883), wk =   0.0029297
        k(   25) = (   0.1767767   0.0000000   0.0000000), wk =   0.0014648
        k(   26) = (   0.2209709   0.0441942  -0.0441942), wk =   0.0058594
        k(   27) = (   0.2651650   0.0883883  -0.0883883), wk =   0.0058594
        k(   28) = (   0.3093592   0.1325825  -0.1325825), wk =   0.0058594
        k(   29) = (   0.3535534   0.1767767  -0.1767767), wk =   0.0058594
        k(   30) = (   0.3977476   0.2209709  -0.2209709), wk =   0.0058594
        k(   31) = (  -0.2651650  -0.4419417   0.4419417), wk =   0.0058594
        k(   32) = (  -0.2209709  -0.3977476   0.3977476), wk =   0.0058594
        k(   33) = (  -0.1767767  -0.3535534   0.3535534), wk =   0.0058594
        k(   34) = (  -0.1325825  -0.3093592   0.3093592), wk =   0.0058594
        k(   35) = (  -0.0883883  -0.2651650   0.2651650), wk =   0.0058594
        k(   36) = (  -0.0441942  -0.2209709   0.2209709), wk =   0.0058594
        k(   37) = (   0.0000000  -0.1767767   0.1767767), wk =   0.0029297
        k(   38) = (   0.2651650   0.0000000   0.0000000), wk =   0.0014648
        k(   39) = (   0.3093592   0.0441942  -0.0441942), wk =   0.0058594
        k(   40) = (   0.3535534   0.0883883  -0.0883883), wk =   0.0058594
        k(   41) = (   0.3977476   0.1325825  -0.1325825), wk =   0.0058594
        k(   42) = (   0.4419417   0.1767767  -0.1767767), wk =   0.0058594
        k(   43) = (  -0.2209709  -0.4861359   0.4861359), wk =   0.0058594
        k(   44) = (  -0.1767767  -0.4419417   0.4419417), wk =   0.0058594
        k(   45) = (  -0.1325825  -0.3977476   0.3977476), wk =   0.0058594
        k(   46) = (  -0.0883883  -0.3535534   0.3535534), wk =   0.0058594
        k(   47) = (  -0.0441942  -0.3093592   0.3093592), wk =   0.0058594
        k(   48) = (   0.0000000  -0.2651650   0.2651650), wk =   0.0029297
        k(   49) = (   0.3535534   0.0000000   0.0000000), wk =   0.0014648
        k(   50) = (   0.3977476   0.0441942  -0.0441942), wk =   0.0058594
        k(   51) = (   0.4419417   0.0883883  -0.0883883), wk =   0.0058594
        k(   52) = (   0.4861359   0.1325825  -0.1325825), wk =   0.0058594
        k(   53) = (  -0.1767767  -0.5303301   0.5303301), wk =   0.0058594
        k(   54) = (  -0.1325825  -0.4861359   0.4861359), wk =   0.0058594
        k(   55) = (  -0.0883883  -0.4419417   0.4419417), wk =   0.0058594
        k(   56) = (  -0.0441942  -0.3977476   0.3977476), wk =   0.0058594
        k(   57) = (   0.0000000  -0.3535534   0.3535534), wk =   0.0029297
        k(   58) = (   0.4419417   0.0000000   0.0000000), wk =   0.0014648
        k(   59) = (   0.4861359   0.0441942  -0.0441942), wk =   0.0058594
        k(   60) = (   0.5303301   0.0883883  -0.0883883), wk =   0.0058594
        k(   61) = (  -0.1325825  -0.5745243   0.5745243), wk =   0.0058594
        k(   62) = (  -0.0883883  -0.5303301   0.5303301), wk =   0.0058594
        k(   63) = (  -0.0441942  -0.4861359   0.4861359), wk =   0.0058594
        k(   64) = (   0.0000000  -0.4419417   0.4419417), wk =   0.0029297
        k(   65) = (   0.5303301   0.0000000   0.0000000), wk =   0.0014648
        k(   66) = (   0.5745243   0.0441942  -0.0441942), wk =   0.0058594
        k(   67) = (  -0.0883883  -0.6187184   0.6187184), wk =   0.0058594
        k(   68) = (  -0.0441942  -0.5745243   0.5745243), wk =   0.0058594
        k(   69) = (   0.0000000  -0.5303301   0.5303301), wk =   0.0029297
        k(   70) = (   0.6187184   0.0000000   0.0000000), wk =   0.0014648
        k(   71) = (  -0.0441942  -0.6629126   0.6629126), wk =   0.0058594
        k(   72) = (   0.0000000  -0.6187184   0.6187184), wk =   0.0029297
        k(   73) = (  -0.7071068   0.0000000   0.0000000), wk =   0.0007324
        k(   74) = (   0.1767767   0.0883883   0.0000000), wk =   0.0058594
        k(   75) = (   0.2209709   0.1325825  -0.0441942), wk =   0.0117188
        k(   76) = (   0.2651650   0.1767767  -0.0883883), wk =   0.0117188
        k(   77) = (   0.3093592   0.2209709  -0.1325825), wk =   0.0117188
        k(   78) = (   0.3535534   0.2651650  -0.1767767), wk =   0.0117188
        k(   79) = (  -0.3093592  -0.3977476   0.4861359), wk =   0.0117188
        k(   80) = (  -0.2651650  -0.3535534   0.4419417), wk =   0.0058594
        k(   81) = (   0.2651650   0.0883883   0.0000000), wk =   0.0058594
        k(   82) = (   0.3093592   0.1325825  -0.0441942), wk =   0.0117188
        k(   83) = (   0.3535534   0.1767767  -0.0883883), wk =   0.0117188
        k(   84) = (   0.3977476   0.2209709  -0.1325825), wk =   0.0117188
        k(   85) = (  -0.2651650  -0.4419417   0.5303301), wk =   0.0117188
        k(   86) = (  -0.2209709  -0.3977476   0.4861359), wk =   0.0117188
        k(   87) = (  -0.1767767  -0.3535534   0.4419417), wk =   0.0117188
        k(   88) = (  -0.1325825  -0.3093592   0.3977476), wk =   0.0117188
        k(   89) = (  -0.0883883  -0.2651650   0.3535534), wk =   0.0117188
        k(   90) = (  -0.0441942  -0.2209709   0.3093592), wk =   0.0117188
        k(   91) = (   0.0000000  -0.1767767   0.2651650), wk =   0.0058594
        k(   92) = (   0.3535534   0.0883883   0.0000000), wk =   0.0058594
        k(   93) = (   0.3977476   0.1325825  -0.0441942), wk =   0.0117188
        k(   94) = (   0.4419417   0.1767767  -0.0883883), wk =   0.0117188
        k(   95) = (  -0.2209709  -0.4861359   0.5745243), wk =   0.0117188
        k(   96) = (  -0.1767767  -0.4419417   0.5303301), wk =   0.0117188
        k(   97) = (  -0.1325825  -0.3977476   0.4861359), wk =   0.0117188
        k(   98) = (  -0.0883883  -0.3535534   0.4419417), wk =   0.0117188
        k(   99) = (  -0.0441942  -0.3093592   0.3977476), wk =   0.0117188
        k(  100) = (   0.0000000  -0.2651650   0.3535534), wk =   0.0058594
        k(  101) = (   0.4419417   0.0883883   0.0000000), wk =   0.0058594
        k(  102) = (   0.4861359   0.1325825  -0.0441942), wk =   0.0117188
        k(  103) = (  -0.1767767  -0.5303301   0.6187184), wk =   0.0117188
        k(  104) = (  -0.1325825  -0.4861359   0.5745243), wk =   0.0117188
        k(  105) = (  -0.0883883  -0.4419417   0.5303301), wk =   0.0117188
        k(  106) = (  -0.0441942  -0.3977476   0.4861359), wk =   0.0117188
        k(  107) = (   0.0000000  -0.3535534   0.4419417), wk =   0.0058594
        k(  108) = (   0.5303301   0.0883883   0.0000000), wk =   0.0058594
        k(  109) = (  -0.1325825  -0.5745243   0.6629126), wk =   0.0117188
        k(  110) = (  -0.0883883  -0.5303301   0.6187184), wk =   0.0117188
        k(  111) = (  -0.0441942  -0.4861359   0.5745243), wk =   0.0117188
        k(  112) = (   0.0000000  -0.4419417   0.5303301), wk =   0.0058594
        k(  113) = (  -0.0883883  -0.6187184   0.7071068), wk =   0.0058594
        k(  114) = (  -0.0441942  -0.5745243   0.6629126), wk =   0.0117188
        k(  115) = (  -0.0000000  -0.5303301   0.6187184), wk =   0.0058594
        k(  116) = (  -0.7071068   0.0883883   0.0000000), wk =   0.0029297
        k(  117) = (   0.3535534   0.1767767   0.0000000), wk =   0.0058594
        k(  118) = (   0.3977476   0.2209709  -0.0441942), wk =   0.0117188
        k(  119) = (  -0.2651650  -0.4419417   0.6187184), wk =   0.0117188
        k(  120) = (  -0.2209709  -0.3977476   0.5745243), wk =   0.0117188
        k(  121) = (  -0.1767767  -0.3535534   0.5303301), wk =   0.0058594
        k(  122) = (   0.4419417   0.1767767   0.0000000), wk =   0.0058594
        k(  123) = (  -0.2209709  -0.4861359   0.6629126), wk =   0.0117188
        k(  124) = (  -0.1767767  -0.4419417   0.6187184), wk =   0.0117188
        k(  125) = (  -0.1325825  -0.3977476   0.5745243), wk =   0.0117188
        k(  126) = (  -0.0883883  -0.3535534   0.5303301), wk =   0.0117188
        k(  127) = (  -0.0441942  -0.3093592   0.4861359), wk =   0.0117188
        k(  128) = (   0.0000000  -0.2651650   0.4419417), wk =   0.0058594
        k(  129) = (  -0.1767767  -0.5303301   0.7071068), wk =   0.0058594
        k(  130) = (  -0.1325825  -0.4861359   0.6629126), wk =   0.0117188
        k(  131) = (  -0.0883883  -0.4419417   0.6187184), wk =   0.0117188
        k(  132) = (  -0.0441942  -0.3977476   0.5745243), wk =   0.0117188
        k(  133) = (   0.0000000  -0.3535534   0.5303301), wk =   0.0058594
        k(  134) = (  -0.0883883  -0.5303301   0.7071068), wk =   0.0058594
        k(  135) = (  -0.0441942  -0.4861359   0.6629126), wk =   0.0117188
        k(  136) = (   0.0000000  -0.4419417   0.6187184), wk =   0.0058594
        k(  137) = (  -0.7071068   0.1767767   0.0000000), wk =   0.0029297
        k(  138) = (  -0.1767767  -0.4419417   0.7071068), wk =   0.0058594
        k(  139) = (  -0.1325825  -0.3977476   0.6629126), wk =   0.0117188
        k(  140) = (  -0.0883883  -0.3535534   0.6187184), wk =   0.0058594
        k(  141) = (  -0.0883883  -0.4419417   0.7071068), wk =   0.0058594
        k(  142) = (  -0.0441942  -0.3977476   0.6629126), wk =   0.0117188
        k(  143) = (  -0.0000000  -0.3535534   0.6187184), wk =   0.0058594
        k(  144) = (  -0.7071068   0.2651650   0.0000000), wk =   0.0029297
        k(  145) = (  -0.7071068   0.3535534   0.0000000), wk =   0.0014648

                       cryst. coord.
        k(    1) = (   0.0000000   0.0000000   0.0000000), wk =   0.0002441
        k(    2) = (   0.0000000   0.0000000   0.0625000), wk =   0.0019531
        k(    3) = (   0.0000000   0.0000000   0.1250000), wk =   0.0019531
        k(    4) = (   0.0000000   0.0000000   0.1875000), wk =   0.0019531
        k(    5) = (   0.0000000   0.0000000   0.2500000), wk =   0.0019531
        k(    6) = (   0.0000000   0.0000000   0.3125000), wk =   0.0019531
        k(    7) = (   0.0000000   0.0000000   0.3750000), wk =   0.0019531
        k(    8) = (   0.0000000   0.0000000   0.4375000), wk =   0.0019531
        k(    9) = (   0.0000000   0.0000000  -0.5000000), wk =   0.0009766
        k(   10) = (   0.0000000   0.0625000   0.0625000), wk =   0.0014648
        k(   11) = (   0.0000000   0.0625000   0.1250000), wk =   0.0058594
        k(   12) = (   0.0000000   0.0625000   0.1875000), wk =   0.0058594
        k(   13) = (   0.0000000   0.0625000   0.2500000), wk =   0.0058594
        k(   14) = (   0.0000000   0.0625000   0.3125000), wk =   0.0058594
        k(   15) = (   0.0000000   0.0625000   0.3750000), wk =   0.0058594
        k(   16) = (   0.0000000   0.0625000   0.4375000), wk =   0.0058594
        k(   17) = (   0.0000000   0.0625000  -0.5000000), wk =   0.0058594
        k(   18) = (   0.0000000   0.0625000  -0.4375000), wk =   0.0058594
        k(   19) = (   0.0000000   0.0625000  -0.3750000), wk =   0.0058594
        k(   20) = (   0.0000000   0.0625000  -0.3125000), wk =   0.0058594
        k(   21) = (   0.0000000   0.0625000  -0.2500000), wk =   0.0058594
        k(   22) = (   0.0000000   0.0625000  -0.1875000), wk =   0.0058594
        k(   23) = (   0.0000000   0.0625000  -0.1250000), wk =   0.0058594
        k(   24) = (   0.0000000   0.0625000  -0.0625000), wk =   0.0029297
        k(   25) = (   0.0000000   0.1250000   0.1250000), wk =   0.0014648
        k(   26) = (   0.0000000   0.1250000   0.1875000), wk =   0.0058594
        k(   27) = (   0.0000000   0.1250000   0.2500000), wk =   0.0058594
        k(   28) = (   0.0000000   0.1250000   0.3125000), wk =   0.0058594
        k(   29) = (   0.0000000   0.1250000   0.3750000), wk =   0.0058594
        k(   30) = (   0.0000000   0.1250000   0.4375000), wk =   0.0058594
        k(   31) = (   0.0000000   0.1250000  -0.5000000), wk =   0.0058594
        k(   32) = (   0.0000000   0.1250000  -0.4375000), wk =   0.0058594
        k(   33) = (   0.0000000   0.1250000  -0.3750000), wk =   0.0058594
        k(   34) = (   0.0000000   0.1250000  -0.3125000), wk =   0.0058594
        k(   35) = (   0.0000000   0.1250000  -0.2500000), wk =   0.0058594
        k(   36) = (   0.0000000   0.1250000  -0.1875000), wk =   0.0058594
        k(   37) = (   0.0000000   0.1250000  -0.1250000), wk =   0.0029297
        k(   38) = (   0.0000000   0.1875000   0.1875000), wk =   0.0014648
        k(   39) = (   0.0000000   0.1875000   0.2500000), wk =   0.0058594
        k(   40) = (   0.0000000   0.1875000   0.3125000), wk =   0.0058594
        k(   41) = (   0.0000000   0.1875000   0.3750000), wk =   0.0058594
        k(   42) = (   0.0000000   0.1875000   0.4375000), wk =   0.0058594
        k(   43) = (   0.0000000   0.1875000  -0.5000000), wk =   0.0058594
        k(   44) = (   0.0000000   0.1875000  -0.4375000), wk =   0.0058594
        k(   45) = (   0.0000000   0.1875000  -0.3750000), wk =   0.0058594
        k(   46) = (   0.0000000   0.1875000  -0.3125000), wk =   0.0058594
        k(   47) = (   0.0000000   0.1875000  -0.2500000), wk =   0.0058594
        k(   48) = (   0.0000000   0.1875000  -0.1875000), wk =   0.0029297
        k(   49) = (   0.0000000   0.2500000   0.2500000), wk =   0.0014648
        k(   50) = (   0.0000000   0.2500000   0.3125000), wk =   0.0058594
        k(   51) = (   0.0000000   0.2500000   0.3750000), wk =   0.0058594
        k(   52) = (   0.0000000   0.2500000   0.4375000), wk =   0.0058594
        k(   53) = (   0.0000000   0.2500000  -0.5000000), wk =   0.0058594
        k(   54) = (   0.0000000   0.2500000  -0.4375000), wk =   0.0058594
        k(   55) = (   0.0000000   0.2500000  -0.3750000), wk =   0.0058594
        k(   56) = (   0.0000000   0.2500000  -0.3125000), wk =   0.0058594
        k(   57) = (   0.0000000   0.2500000  -0.2500000), wk =   0.0029297
        k(   58) = (   0.0000000   0.3125000   0.3125000), wk =   0.0014648
        k(   59) = (   0.0000000   0.3125000   0.3750000), wk =   0.0058594
        k(   60) = (   0.0000000   0.3125000   0.4375000), wk =   0.0058594
        k(   61) = (   0.0000000   0.3125000  -0.5000000), wk =   0.0058594
        k(   62) = (   0.0000000   0.3125000  -0.4375000), wk =   0.0058594
        k(   63) = (   0.0000000   0.3125000  -0.3750000), wk =   0.0058594
        k(   64) = (   0.0000000   0.3125000  -0.3125000), wk =   0.0029297
        k(   65) = (   0.0000000   0.3750000   0.3750000), wk =   0.0014648
        k(   66) = (   0.0000000   0.3750000   0.4375000), wk =   0.0058594
        k(   67) = (   0.0000000   0.3750000  -0.5000000), wk =   0.0058594
        k(   68) = (   0.0000000   0.3750000  -0.4375000), wk =   0.0058594
        k(   69) = (   0.0000000   0.3750000  -0.3750000), wk =   0.0029297
        k(   70) = (   0.0000000   0.4375000   0.4375000), wk =   0.0014648
        k(   71) = (   0.0000000   0.4375000  -0.5000000), wk =   0.0058594
        k(   72) = (   0.0000000   0.4375000  -0.4375000), wk =   0.0029297
        k(   73) = (   0.0000000  -0.5000000  -0.5000000), wk =   0.0007324
        k(   74) = (   0.0625000   0.1250000   0.1875000), wk =   0.0058594
        k(   75) = (   0.0625000   0.1250000   0.2500000), wk =   0.0117188
        k(   76) = (   0.0625000   0.1250000   0.3125000), wk =   0.0117188
        k(   77) = (   0.0625000   0.1250000   0.3750000), wk =   0.0117188
        k(   78) = (   0.0625000   0.1250000   0.4375000), wk =   0.0117188
        k(   79) = (   0.0625000   0.1250000  -0.5000000), wk =   0.0117188
        k(   80) = (   0.0625000   0.1250000  -0.4375000), wk =   0.0058594
        k(   81) = (   0.0625000   0.1875000   0.2500000), wk =   0.0058594
        k(   82) = (   0.0625000   0.1875000   0.3125000), wk =   0.0117188
        k(   83) = (   0.0625000   0.1875000   0.3750000), wk =   0.0117188
        k(   84) = (   0.0625000   0.1875000   0.4375000), wk =   0.0117188
        k(   85) = (   0.0625000   0.1875000  -0.5000000), wk =   0.0117188
        k(   86) = (   0.0625000   0.1875000  -0.4375000), wk =   0.0117188
        k(   87) = (   0.0625000   0.1875000  -0.3750000), wk =   0.0117188
        k(   88) = (   0.0625000   0.1875000  -0.3125000), wk =   0.0117188
        k(   89) = (   0.0625000   0.1875000  -0.2500000), wk =   0.0117188
        k(   90) = (   0.0625000   0.1875000  -0.1875000), wk =   0.0117188
        k(   91) = (   0.0625000   0.1875000  -0.1250000), wk =   0.0058594
        k(   92) = (   0.0625000   0.2500000   0.3125000), wk =   0.0058594
        k(   93) = (   0.0625000   0.2500000   0.3750000), wk =   0.0117188
        k(   94) = (   0.0625000   0.2500000   0.4375000), wk =   0.0117188
        k(   95) = (   0.0625000   0.2500000  -0.5000000), wk =   0.0117188
        k(   96) = (   0.0625000   0.2500000  -0.4375000), wk =   0.0117188
        k(   97) = (   0.0625000   0.2500000  -0.3750000), wk =   0.0117188
        k(   98) = (   0.0625000   0.2500000  -0.3125000), wk =   0.0117188
        k(   99) = (   0.0625000   0.2500000  -0.2500000), wk =   0.0117188
        k(  100) = (   0.0625000   0.2500000  -0.1875000), wk =   0.0058594
        k(  101) = (   0.0625000   0.3125000   0.3750000), wk =   0.0058594
        k(  102) = (   0.0625000   0.3125000   0.4375000), wk =   0.0117188
        k(  103) = (   0.0625000   0.3125000  -0.5000000), wk =   0.0117188
        k(  104) = (   0.0625000   0.3125000  -0.4375000), wk =   0.0117188
        k(  105) = (   0.0625000   0.3125000  -0.3750000), wk =   0.0117188
        k(  106) = (   0.0625000   0.3125000  -0.3125000), wk =   0.0117188
        k(  107) = (   0.0625000   0.3125000  -0.2500000), wk =   0.0058594
        k(  108) = (   0.0625000   0.3750000   0.4375000), wk =   0.0058594
        k(  109) = (   0.0625000   0.3750000  -0.5000000), wk =   0.0117188
        k(  110) = (   0.0625000   0.3750000  -0.4375000), wk =   0.0117188
        k(  111) = (   0.0625000   0.3750000  -0.3750000), wk =   0.0117188
        k(  112) = (   0.0625000   0.3750000  -0.3125000), wk =   0.0058594
        k(  113) = (   0.0625000   0.4375000  -0.5000000), wk =   0.0058594
        k(  114) = (   0.0625000   0.4375000  -0.4375000), wk =   0.0117188
        k(  115) = (   0.0625000   0.4375000  -0.3750000), wk =   0.0058594
        k(  116) = (   0.0625000  -0.5000000  -0.4375000), wk =   0.0029297
        k(  117) = (   0.1250000   0.2500000   0.3750000), wk =   0.0058594
        k(  118) = (   0.1250000   0.2500000   0.4375000), wk =   0.0117188
        k(  119) = (   0.1250000   0.2500000  -0.5000000), wk =   0.0117188
        k(  120) = (   0.1250000   0.2500000  -0.4375000), wk =   0.0117188
        k(  121) = (   0.1250000   0.2500000  -0.3750000), wk =   0.0058594
        k(  122) = (   0.1250000   0.3125000   0.4375000), wk =   0.0058594
        k(  123) = (   0.1250000   0.3125000  -0.5000000), wk =   0.0117188
        k(  124) = (   0.1250000   0.3125000  -0.4375000), wk =   0.0117188
        k(  125) = (   0.1250000   0.3125000  -0.3750000), wk =   0.0117188
        k(  126) = (   0.1250000   0.3125000  -0.3125000), wk =   0.0117188
        k(  127) = (   0.1250000   0.3125000  -0.2500000), wk =   0.0117188
        k(  128) = (   0.1250000   0.3125000  -0.1875000), wk =   0.0058594
        k(  129) = (   0.1250000   0.3750000  -0.5000000), wk =   0.0058594
        k(  130) = (   0.1250000   0.3750000  -0.4375000), wk =   0.0117188
        k(  131) = (   0.1250000   0.3750000  -0.3750000), wk =   0.0117188
        k(  132) = (   0.1250000   0.3750000  -0.3125000), wk =   0.0117188
        k(  133) = (   0.1250000   0.3750000  -0.2500000), wk =   0.0058594
        k(  134) = (   0.1250000   0.4375000  -0.4375000), wk =   0.0058594
        k(  135) = (   0.1250000   0.4375000  -0.3750000), wk =   0.0117188
        k(  136) = (   0.1250000   0.4375000  -0.3125000), wk =   0.0058594
        k(  137) = (   0.1250000  -0.5000000  -0.3750000), wk =   0.0029297
        k(  138) = (   0.1875000   0.3750000  -0.4375000), wk =   0.0058594
        k(  139) = (   0.1875000   0.3750000  -0.3750000), wk =   0.0117188
        k(  140) = (   0.1875000   0.3750000  -0.3125000), wk =   0.0058594
        k(  141) = (   0.1875000   0.4375000  -0.3750000), wk =   0.0058594
        k(  142) = (   0.1875000   0.4375000  -0.3125000), wk =   0.0117188
        k(  143) = (   0.1875000   0.4375000  -0.2500000), wk =   0.0058594
        k(  144) = (   0.1875000  -0.5000000  -0.3125000), wk =   0.0029297
        k(  145) = (   0.2500000  -0.5000000  -0.2500000), wk =   0.0014648

     Dense  grid:    35557 G-vectors     FFT dimensions: (  45,  45,  45)

     Largest allocated arrays     est. size (Mb)     dimensions
        Kohn-Sham Wavefunctions         0.31 Mb     (     570,   36)
        NL pseudopotentials             0.16 Mb     (     285,   36)
        Each V/rho on FFT grid          0.09 Mb     (    6075)
        Each G-vector array             0.02 Mb     (    2224)
        G-vector shells                 0.00 Mb     (     334)
     Largest temporary arrays     est. size (Mb)     dimensions
        Auxiliary wavefunctions         1.25 Mb     (     570,  144)
        Each subspace H/S matrix        0.32 Mb     (     144,  144)
        Each <psi_i|beta_j> matrix      0.04 Mb     (      36,   2,   36)
        Arrays for rho mixing           0.74 Mb     (    6075,    8)

     Check: negative/imaginary core charge=   -0.000028    0.000000

     Initial potential from superposition of free atoms

     starting charge   27.99723, renormalised to   28.00000
     Starting wfc are   36 randomized atomic wfcs
     Checking if some PAW data can be deallocated... 

     total cpu time spent up to now is        4.1 secs

     Self-consistent Calculation

     iteration #  1     ecut=    65.00 Ry     beta=0.70
     Davidson diagonalization with overlap
     ethr =  1.00E-02,  avg # of iterations =  3.9

     Threshold (ethr) on eigenvalues was too large:
     Diagonalizing with lowered threshold

     Davidson diagonalization with overlap
     ethr =  4.92E-05,  avg # of iterations =  4.2

     total cpu time spent up to now is       30.7 secs

     total energy              =    -884.12772088 Ry
     Harris-Foulkes estimate   =    -884.13188700 Ry
     estimated scf accuracy    <       0.02351485 Ry

     iteration #  2     ecut=    65.00 Ry     beta=0.70
     Davidson diagonalization with overlap
     ethr =  8.40E-05,  avg # of iterations =  1.0

     total cpu time spent up to now is       38.6 secs

     total energy              =    -884.12815065 Ry
     Harris-Foulkes estimate   =    -884.12850749 Ry
     estimated scf accuracy    <       0.00166140 Ry

     iteration #  3     ecut=    65.00 Ry     beta=0.70
     Davidson diagonalization with overlap
     ethr =  5.93E-06,  avg # of iterations =  2.6

     total cpu time spent up to now is       48.9 secs

     total energy              =    -884.12844428 Ry
     Harris-Foulkes estimate   =    -884.12857165 Ry
     estimated scf accuracy    <       0.00016876 Ry

     iteration #  4     ecut=    65.00 Ry     beta=0.70
     Davidson diagonalization with overlap
     ethr =  6.03E-07,  avg # of iterations =  3.0

     total cpu time spent up to now is       60.9 secs

     total energy              =    -884.12851525 Ry
     Harris-Foulkes estimate   =    -884.12851586 Ry
     estimated scf accuracy    <       0.00000798 Ry

     iteration #  5     ecut=    65.00 Ry     beta=0.70
     Davidson diagonalization with overlap
     ethr =  2.85E-08,  avg # of iterations =  3.0

     total cpu time spent up to now is       70.7 secs

     End of self-consistent calculation

          k = 0.0000 0.0000 0.0000 (  4477 PWs)   bands (ev):

   -14.0260 -14.0260 -14.0260 -14.0260 -14.0260 -14.0260 -13.9763 -13.9763
   -13.9763 -13.9763 -13.7298 -13.7298 -13.7298 -13.7298 -13.7298 -13.7298
   -13.7278 -13.7278 -13.7278 -13.7278  -2.5439  -2.5439   6.3392   6.3392
     7.6268   7.6268   7.6268   7.6268   7.6268   7.6268   9.6933   9.6933
     9.6933   9.6933   9.6933   9.6933

     occupation numbers 
     1.0000   1.0000   1.0000   1.0000   1.0000   1.0000   1.0000   1.0000
     1.0000   1.0000   1.0000   1.0000   1.0000   1.0000   1.0000   1.0000
     1.0000   1.0000   1.0000   1.0000   1.0000   1.0000   1.0000   1.0000
     0.0000   0.0000   0.0000   0.0000   0.0000   0.0000   0.0000   0.0000
     0.0000   0.0000   0.0000   0.0000

          k = 0.0442 0.0442-0.0442 (  4453 PWs)   bands (ev):

   -14.0285 -14.0285 -14.0285 -14.0285 -14.0251 -14.0251 -13.9728 -13.9728
   -13.9728 -13.9728 -13.7394 -13.7394 -13.7394 -13.7394 -13.7307 -13.7307
   -13.7188 -13.7188 -13.7188 -13.7188  -2.5091  -2.5091   5.9452   5.9452
     7.5543   7.5543   7.5543   7.5543   7.8082   7.8082   9.7882   9.7882
     9.7882   9.7882   9.8250   9.8250

     occupation numbers 
     1.0000   1.0000   1.0000   1.0000   1.0000   1.0000   1.0000   1.0000
     1.0000   1.0000   1.0000   1.0000   1.0000   1.0000   1.0000   1.0000
     1.0000   1.0000   1.0000   1.0000   1.0000   1.0000   1.0000   1.0000
     0.0217   0.0217   0.0217   0.0217   0.0000   0.0000   0.0000   0.0000
     0.0000   0.0000   0.0000   0.0000

          k = 0.0884 0.0884-0.0884 (  4456 PWs)   bands (ev):

   -14.0343 -14.0343 -14.0343 -14.0343 -14.0228 -14.0228 -13.9646 -13.9646
   -13.9646 -13.9646 -13.7498 -13.7498 -13.7498 -13.7498 -13.7335 -13.7335
   -13.7099 -13.7099 -13.7099 -13.7099  -2.4059  -2.4059   5.1849   5.1849
     7.3768   7.3768   7.3768   7.3768   7.9388   7.9388  10.0227  10.0227
    10.0227  10.0227  10.2621  10.2621

     occupation numbers 
     1.0000   1.0000   1.0000   1.0000   1.0000   1.0000   1.0000   1.0000
     1.0000   1.0000   1.0000   1.0000   1.0000   1.0000   1.0000   1.0000
     1.0000   1.0000   1.0000   1.0000   1.0000   1.0000   1.0000   1.0000
     1.0000   1.0000   1.0000   1.0000   0.0000   0.0000   0.0000   0.0000
     0.0000   0.0000   0.0000   0.0000

          k = 0.1326 0.1326-0.1326 (  4444 PWs)   bands (ev):

   -14.0406 -14.0406 -14.0406 -14.0406 -14.0192 -14.0192 -13.9547 -13.9547
   -13.9547 -13.9547 -13.7596 -13.7596 -13.7596 -13.7596 -13.7377 -13.7377
   -13.7024 -13.7024 -13.7024 -13.7024  -2.2370  -2.2370   4.3556   4.3556
     7.1619   7.1619   7.1619   7.1619   7.8774   7.8774  10.2985  10.2985
    10.2985  10.2985  10.9461  10.9461

     occupation numbers 
     1.0000   1.0000   1.0000   1.0000   1.0000   1.0000   1.0000   1.0000
     1.0000   1.0000   1.0000   1.0000   1.0000   1.0000   1.0000   1.0000
     1.0000   1.0000   1.0000   1.0000   1.0000   1.0000   1.0000   1.0000
     1.0000   1.0000   1.0000   1.0000   0.0000   0.0000   0.0000   0.0000
     0.0000   0.0000   0.0000   0.0000

          k = 0.1768 0.1768-0.1768 (  4432 PWs)   bands (ev):

   -14.0461 -14.0461 -14.0461 -14.0461 -14.0149 -14.0149 -13.9453 -13.9453
   -13.9453 -13.9453 -13.7679 -13.7679 -13.7679 -13.7679 -13.7428 -13.7428
   -13.6964 -13.6964 -13.6964 -13.6964  -2.0088  -2.0088   3.5444   3.5444
     6.9551   6.9551   6.9551   6.9551   7.7391   7.7391  10.5297  10.5297
    10.5297  10.5297  11.7574  11.7575

     occupation numbers 
     1.0000   1.0000   1.0000   1.0000   1.0000   1.0000   1.0000   1.0000
     1.0000   1.0000   1.0000   1.0000   1.0000   1.0000   1.0000   1.0000
     1.0000   1.0000   1.0000   1.0000   1.0000   1.0000   1.0000   1.0000
     1.0000   1.0000   1.0000   1.0000   0.0000   0.0000   0.0000   0.0000
     0.0000   0.0000   0.0000   0.0000

          k = 0.2210 0.2210-0.2210 (  4438 PWs)   bands (ev):

   -14.0502 -14.0502 -14.0502 -14.0502 -14.0104 -14.0104 -13.9376 -13.9376
   -13.9376 -13.9376 -13.7742 -13.7742 -13.7742 -13.7742 -13.7480 -13.7480
   -13.6920 -13.6920 -13.6920 -13.6920  -1.7343  -1.7343   2.7968   2.7968
     6.7803   6.7803   6.7803   6.7803   7.5983   7.5983  10.6702  10.6702
    10.6702  10.6702  12.6238  12.6239

     occupation numbers 
     1.0000   1.0000   1.0000   1.0000   1.0000   1.0000   1.0000   1.0000
     1.0000   1.0000   1.0000   1.0000   1.0000   1.0000   1.0000   1.0000
     1.0000   1.0000   1.0000   1.0000   1.0000   1.0000   1.0000   1.0000
     1.0000   1.0000   1.0000   1.0000   0.0000   0.0000   0.0000   0.0000
     0.0000   0.0000   0.0000   0.0000

          k = 0.2652 0.2652-0.2652 (  4437 PWs)   bands (ev):

   -14.0529 -14.0529 -14.0529 -14.0529 -14.0065 -14.0065 -13.9322 -13.9322
   -13.9322 -13.9322 -13.7784 -13.7784 -13.7784 -13.7784 -13.7525 -13.7525
   -13.6890 -13.6890 -13.6890 -13.6890  -1.4416  -1.4416   2.1574   2.1574
     6.6495   6.6495   6.6495   6.6495   7.4861   7.4861  10.7278  10.7278
    10.7278  10.7278  13.3037  13.3037

     occupation numbers 
     1.0000   1.0000   1.0000   1.0000   1.0000   1.0000   1.0000   1.0000
     1.0000   1.0000   1.0000   1.0000   1.0000   1.0000   1.0000   1.0000
     1.0000   1.0000   1.0000   1.0000   1.0000   1.0000   1.0000   1.0000
     1.0000   1.0000   1.0000   1.0000   1.0000   1.0000   0.0000   0.0000
     0.0000   0.0000   0.0000   0.0000

          k = 0.3094 0.3094-0.3094 (  4431 PWs)   bands (ev):

   -14.0545 -14.0545 -14.0545 -14.0545 -14.0039 -14.0039 -13.9292 -13.9292
   -13.9292 -13.9292 -13.7807 -13.7807 -13.7807 -13.7807 -13.7555 -13.7555
   -13.6874 -13.6874 -13.6874 -13.6874  -1.1908  -1.1908   1.6954   1.6954
     6.5690   6.5690   6.5690   6.5690   7.4155   7.4155  10.7406  10.7406
    10.7406  10.7406  13.3460  13.3460

     occupation numbers 
     1.0000   1.0000   1.0000   1.0000   1.0000   1.0000   1.0000   1.0000
     1.0000   1.0000   1.0000   1.0000   1.0000   1.0000   1.0000   1.0000
     1.0000   1.0000   1.0000   1.0000   1.0000   1.0000   1.0000   1.0000
     1.0000   1.0000   1.0000   1.0000   1.0000   1.0000   0.0000   0.0000
     0.0000   0.0000   0.0000   0.0000

          k =-0.3536-0.3536 0.3536 (  4446 PWs)   bands (ev):

   -14.0550 -14.0550 -14.0550 -14.0550 -14.0029 -14.0029 -13.9282 -13.9282
   -13.9282 -13.9282 -13.7814 -13.7814 -13.7814 -13.7814 -13.7566 -13.7566
   -13.6868 -13.6868 -13.6868 -13.6868  -1.0847  -1.0847   1.5185   1.5185
     6.5419   6.5419   6.5419   6.5419   7.3915   7.3915  10.7410  10.7410
    10.7410  10.7410  13.3228  13.3228

     occupation numbers 
     1.0000   1.0000   1.0000   1.0000   1.0000   1.0000   1.0000   1.0000
     1.0000   1.0000   1.0000   1.0000   1.0000   1.0000   1.0000   1.0000
     1.0000   1.0000   1.0000   1.0000   1.0000   1.0000   1.0000   1.0000
     1.0000   1.0000   1.0000   1.0000   1.0000   1.0000   0.0000   0.0000
     0.0000   0.0000   0.0000   0.0000

          k = 0.0884 0.0000 0.0000 (  4453 PWs)   bands (ev):

   -14.0280 -14.0280 -14.0278 -14.0278 -14.0278 -14.0278 -13.9738 -13.9738
   -13.9694 -13.9694 -13.7487 -13.7487 -13.7302 -13.7302 -13.7273 -13.7273
   -13.7273 -13.7273 -13.7146 -13.7146  -2.4975  -2.4975   5.8651   5.8651
     7.4216   7.4216   7.4216   7.4216   8.0817   8.0817   9.5512   9.5512
     9.9583   9.9583   9.9583   9.9583

     occupation numbers 
     1.0000   1.0000   1.0000   1.0000   1.0000   1.0000   1.0000   1.0000
     1.0000   1.0000   1.0000   1.0000   1.0000   1.0000   1.0000   1.0000
     1.0000   1.0000   1.0000   1.0000   1.0000   1.0000   1.0000   1.0000
     1.0000   1.0000   1.0000   1.0000   0.0000   0.0000   0.0000   0.0000
     0.0000   0.0000   0.0000   0.0000

          k = 0.1326 0.0442-0.0442 (  4445 PWs)   bands (ev):

   -14.0341 -14.0341 -14.0316 -14.0316 -14.0256 -14.0256 -13.9686 -13.9686
   -13.9609 -13.9609 -13.7599 -13.7599 -13.7396 -13.7396 -13.7274 -13.7274
   -13.7183 -13.7183 -13.7077 -13.7077  -2.4169  -2.4169   5.3013   5.3013
     7.2136   7.2136   7.2451   7.2451   8.3346   8.3346   9.5518   9.5518
    10.2417  10.2417  10.3170  10.3170

     occupation numbers 
     1.0000   1.0000   1.0000   1.0000   1.0000   1.0000   1.0000   1.0000
     1.0000   1.0000   1.0000   1.0000   1.0000   1.0000   1.0000   1.0000
     1.0000   1.0000   1.0000   1.0000   1.0000   1.0000   1.0000   1.0000
     1.0000   1.0000   1.0000   1.0000   0.0000   0.0000   0.0000   0.0000
     0.0000   0.0000   0.0000   0.0000

          k = 0.1768 0.0884-0.0884 (  4446 PWs)   bands (ev):

   -14.0413 -14.0413 -14.0373 -14.0373 -14.0215 -14.0215 -13.9601 -13.9601
   -13.9505 -13.9505 -13.7705 -13.7705 -13.7496 -13.7496 -13.7313 -13.7313
   -13.7096 -13.7096 -13.7002 -13.7002  -2.2694  -2.2694   4.5480   4.5480
     6.9912   6.9912   7.0281   7.0281   8.3541   8.3541   9.7785   9.7785
    10.5479  10.5479  10.8730  10.8730

     occupation numbers 
     1.0000   1.0000   1.0000   1.0000   1.0000   1.0000   1.0000   1.0000
     1.0000   1.0000   1.0000   1.0000   1.0000   1.0000   1.0000   1.0000
     1.0000   1.0000   1.0000   1.0000   1.0000   1.0000   1.0000   1.0000
     1.0000   1.0000   1.0000   1.0000   0.0000   0.0000   0.0000   0.0000
     0.0000   0.0000   0.0000   0.0000

          k = 0.2210 0.1326-0.1326 (  4437 PWs)   bands (ev):

   -14.0479 -14.0479 -14.0430 -14.0430 -14.0162 -14.0162 -13.9508 -13.9508
   -13.9404 -13.9404 -13.7794 -13.7794 -13.7589 -13.7589 -13.7373 -13.7373
   -13.7022 -13.7022 -13.6934 -13.6934  -2.0600  -2.0600   3.7601   3.7601
     6.7879   6.7879   6.7909   6.7909   8.2407   8.2407  10.0899  10.0899
    10.7961  10.7961  11.5225  11.5225

     occupation numbers 
     1.0000   1.0000   1.0000   1.0000   1.0000   1.0000   1.0000   1.0000
     1.0000   1.0000   1.0000   1.0000   1.0000   1.0000   1.0000   1.0000
     1.0000   1.0000   1.0000   1.0000   1.0000   1.0000   1.0000   1.0000
     1.0000   1.0000   1.0000   1.0000   0.0000   0.0000   0.0000   0.0000
     0.0000   0.0000   0.0000   0.0000

          k = 0.2652 0.1768-0.1768 (  4437 PWs)   bands (ev):

   -14.0531 -14.0531 -14.0478 -14.0478 -14.0102 -14.0102 -13.9422 -13.9422
   -13.9322 -13.9322 -13.7857 -13.7857 -13.7669 -13.7669 -13.7443 -13.7443
   -13.6963 -13.6963 -13.6881 -13.6881  -1.7989  -1.7989   3.0069   3.0069
     6.5628   6.5628   6.6316   6.6316   8.0964   8.0964  10.3504  10.3504
    10.9350  10.9350  12.2054  12.2054

     occupation numbers 
     1.0000   1.0000   1.0000   1.0000   1.0000   1.0000   1.0000   1.0000
     1.0000   1.0000   1.0000   1.0000   1.0000   1.0000   1.0000   1.0000
     1.0000   1.0000   1.0000   1.0000   1.0000   1.0000   1.0000   1.0000
     1.0000   1.0000   1.0000   1.0000   0.0000   0.0000   0.0000   0.0000
     0.0000   0.0000   0.0000   0.0000

          k = 0.3094 0.2210-0.2210 (  4431 PWs)   bands (ev):

   -14.0568 -14.0568 -14.0515 -14.0515 -14.0045 -14.0045 -13.9351 -13.9351
   -13.9269 -13.9269 -13.7887 -13.7887 -13.7736 -13.7736 -13.7514 -13.7514
   -13.6917 -13.6917 -13.6844 -13.6844  -1.5074  -1.5074   2.3370   2.3370
     6.3745   6.3745   6.5232   6.5232   7.9674   7.9674  10.5105  10.5105
    10.9673  10.9673  12.8791  12.8791

     occupation numbers 
     1.0000   1.0000   1.0000   1.0000   1.0000   1.0000   1.0000   1.0000
     1.0000   1.0000   1.0000   1.0000   1.0000   1.0000   1.0000   1.0000
     1.0000   1.0000   1.0000   1.0000   1.0000   1.0000   1.0000   1.0000
     1.0000   1.0000   1.0000   1.0000   0.0000   0.0000   0.0000   0.0000
     0.0000   0.0000   0.0000   0.0000

          k = 0.3536 0.2652-0.2652 (  4435 PWs)   bands (ev):

   -14.0588 -14.0588 -14.0541 -14.0541 -14.0000 -14.0000 -13.9297 -13.9297
   -13.9248 -13.9248 -13.7884 -13.7884 -13.7790 -13.7790 -13.7574 -13.7574
   -13.6883 -13.6883 -13.6825 -13.6825  -1.2324  -1.2324   1.8116   1.8116
     6.2339   6.2339   6.4701   6.4701   7.8733   7.8733  10.5984  10.5984
    10.9344  10.9344  13.3265  13.3265

     occupation numbers 
     1.0000   1.0000   1.0000   1.0000   1.0000   1.0000   1.0000   1.0000
     1.0000   1.0000   1.0000   1.0000   1.0000   1.0000   1.0000   1.0000
     1.0000   1.0000   1.0000   1.0000   1.0000   1.0000   1.0000   1.0000
     1.0000   1.0000   1.0000   1.0000   0.0000   0.0000   0.0000   0.0000
     0.0000   0.0000   0.0000   0.0000

          k =-0.3094-0.3977 0.3977 (  4433 PWs)   bands (ev):

   -14.0594 -14.0594 -14.0557 -14.0557 -13.9976 -13.9976 -13.9261 -13.9261
   -13.9254 -13.9254 -13.7855 -13.7855 -13.7832 -13.7832 -13.7612 -13.7612
   -13.6860 -13.6860 -13.6822 -13.6822  -1.0650  -1.0650   1.5291   1.5291
     6.1472   6.1472   6.4737   6.4737   7.8226   7.8226  10.6599  10.6599
    10.8768  10.8768  13.4294  13.4294

     occupation numbers 
     1.0000   1.0000   1.0000   1.0000   1.0000   1.0000   1.0000   1.0000
     1.0000   1.0000   1.0000   1.0000   1.0000   1.0000   1.0000   1.0000
     1.0000   1.0000   1.0000   1.0000   1.0000   1.0000   1.0000   1.0000
     1.0000   1.0000   1.0000   1.0000   0.0000   0.0000   0.0000   0.0000
     0.0000   0.0000   0.0000   0.0000

          k =-0.2652-0.3536 0.3536 (  4428 PWs)   bands (ev):

   -14.0586 -14.0586 -14.0563 -14.0563 -13.9977 -13.9977 -13.9280 -13.9280
   -13.9243 -13.9243 -13.7859 -13.7859 -13.7815 -13.7815 -13.7617 -13.7617
   -13.6849 -13.6849 -13.6835 -13.6835  -1.1019  -1.1019   1.5893   1.5893
     6.1179   6.1179   6.5331   6.5331   7.8182   7.8182  10.7199  10.7199
    10.8143  10.8143  13.4415  13.4415

     occupation numbers 
     1.0000   1.0000   1.0000   1.0000   1.0000   1.0000   1.0000   1.0000
     1.0000   1.0000   1.0000   1.0000   1.0000   1.0000   1.0000   1.0000
     1.0000   1.0000   1.0000   1.0000   1.0000   1.0000   1.0000   1.0000
     1.0000   1.0000   1.0000   1.0000   0.0000   0.0000   0.0000   0.0000
     0.0000   0.0000   0.0000   0.0000

          k =-0.2210-0.3094 0.3094 (  4440 PWs)   bands (ev):

   -14.0564 -14.0564 -14.0558 -14.0558 -14.0003 -14.0003 -13.9321 -13.9321
   -13.9251 -13.9251 -13.7866 -13.7866 -13.7776 -13.7776 -13.7582 -13.7582
   -13.6865 -13.6865 -13.6850 -13.6850  -1.3182  -1.3182   1.9666   1.9666
     6.1484   6.1484   6.6452   6.6452   7.8598   7.8598  10.7431  10.7431
    10.7753  10.7753  13.3142  13.3142

     occupation numbers 
     1.0000   1.0000   1.0000   1.0000   1.0000   1.0000   1.0000   1.0000
     1.0000   1.0000   1.0000   1.0000   1.0000   1.0000   1.0000   1.0000
     1.0000   1.0000   1.0000   1.0000   1.0000   1.0000   1.0000   1.0000
     1.0000   1.0000   1.0000   1.0000   0.0000   0.0000   0.0000   0.0000
     0.0000   0.0000   0.0000   0.0000

          k =-0.1768-0.2652 0.2652 (  4446 PWs)   bands (ev):

   -14.0540 -14.0540 -14.0528 -14.0528 -14.0050 -14.0050 -13.9378 -13.9378
   -13.9288 -13.9288 -13.7845 -13.7845 -13.7734 -13.7734 -13.7514 -13.7514
   -13.6910 -13.6910 -13.6866 -13.6866  -1.6064  -1.6064   2.5489   2.5489
     6.2401   6.2401   6.8042   6.8042   7.9426   7.9426  10.6390  10.6390
    10.7922  10.7922  12.7300  12.7300

     occupation numbers 
     1.0000   1.0000   1.0000   1.0000   1.0000   1.0000   1.0000   1.0000
     1.0000   1.0000   1.0000   1.0000   1.0000   1.0000   1.0000   1.0000
     1.0000   1.0000   1.0000   1.0000   1.0000   1.0000   1.0000   1.0000
     1.0000   1.0000   1.0000   1.0000   0.0000   0.0000   0.0000   0.0000
     0.0000   0.0000   0.0000   0.0000

          k =-0.1326-0.2210 0.2210 (  4439 PWs)   bands (ev):

   -14.0507 -14.0507 -14.0479 -14.0479 -14.0108 -14.0108 -13.9449 -13.9449
   -13.9356 -13.9356 -13.7794 -13.7794 -13.7681 -13.7681 -13.7433 -13.7433
   -13.6971 -13.6971 -13.6898 -13.6898  -1.8912  -1.8912   3.2511   3.2511
     6.3935   6.3935   7.0002   7.0002   8.0546   8.0546  10.4707  10.4707
    10.7040  10.7040  11.9967  11.9967

     occupation numbers 
     1.0000   1.0000   1.0000   1.0000   1.0000   1.0000   1.0000   1.0000
     1.0000   1.0000   1.0000   1.0000   1.0000   1.0000   1.0000   1.0000
     1.0000   1.0000   1.0000   1.0000   1.0000   1.0000   1.0000   1.0000
     1.0000   1.0000   1.0000   1.0000   0.0000   0.0000   0.0000   0.0000
     0.0000   0.0000   0.0000   0.0000

          k =-0.0884-0.1768 0.1768 (  4436 PWs)   bands (ev):

   -14.0459 -14.0459 -14.0419 -14.0419 -14.0167 -14.0167 -13.9534 -13.9534
   -13.9450 -13.9450 -13.7715 -13.7715 -13.7611 -13.7611 -13.7353 -13.7353
   -13.7047 -13.7047 -13.6947 -13.6947  -2.1367  -2.1367   4.0184   4.0184
     6.6081   6.6081   7.2156   7.2156   8.1663   8.1663  10.2343  10.2343
    10.4496  10.4496  11.3372  11.3372

     occupation numbers 
     1.0000   1.0000   1.0000   1.0000   1.0000   1.0000   1.0000   1.0000
     1.0000   1.0000   1.0000   1.0000   1.0000   1.0000   1.0000   1.0000
     1.0000   1.0000   1.0000   1.0000   1.0000   1.0000   1.0000   1.0000
     1.0000   1.0000   1.0000   1.0000   0.0000   0.0000   0.0000   0.0000
     0.0000   0.0000   0.0000   0.0000

          k =-0.0442-0.1326 0.1326 (  4445 PWs)   bands (ev):

   -14.0398 -14.0398 -14.0352 -14.0352 -14.0217 -14.0217 -13.9622 -13.9622
   -13.9557 -13.9557 -13.7616 -13.7616 -13.7528 -13.7528 -13.7283 -13.7283
   -13.7137 -13.7137 -13.7014 -13.7014  -2.3261  -2.3261   4.7973   4.7973
     6.8834   6.8834   7.4180   7.4180   8.2084   8.2084   9.9799   9.9799
    10.0944  10.0944  10.7604  10.7604

     occupation numbers 
     1.0000   1.0000   1.0000   1.0000   1.0000   1.0000   1.0000   1.0000
     1.0000   1.0000   1.0000   1.0000   1.0000   1.0000   1.0000   1.0000
     1.0000   1.0000   1.0000   1.0000   1.0000   1.0000   1.0000   1.0000
     1.0000   1.0000   1.0000   1.0000   0.0000   0.0000   0.0000   0.0000
     0.0000   0.0000   0.0000   0.0000

          k = 0.0000-0.0884 0.0884 (  4451 PWs)   bands (ev):

   -14.0334 -14.0334 -14.0297 -14.0297 -14.0249 -14.0249 -13.9697 -13.9697
   -13.9658 -13.9658 -13.7506 -13.7506 -13.7439 -13.7439 -13.7247 -13.7247
   -13.7218 -13.7218 -13.7095 -13.7095  -2.4515  -2.4515   5.5001   5.5001
     7.2180   7.2180   7.5515   7.5515   8.0681   8.0681   9.8007   9.8007
     9.8449   9.8449  10.2355  10.2355

     occupation numbers 
     1.0000   1.0000   1.0000   1.0000   1.0000   1.0000   1.0000   1.0000
     1.0000   1.0000   1.0000   1.0000   1.0000   1.0000   1.0000   1.0000
     1.0000   1.0000   1.0000   1.0000   1.0000   1.0000   1.0000   1.0000
     1.0000   1.0000   0.8044   0.8044   0.0000   0.0000   0.0000   0.0000
     0.0000   0.0000   0.0000   0.0000

          k = 0.1768 0.0000 0.0000 (  4464 PWs)   bands (ev):

   -14.0329 -14.0329 -14.0329 -14.0329 -14.0310 -14.0310 -13.9666 -13.9666
   -13.9521 -13.9521 -13.7732 -13.7732 -13.7371 -13.7371 -13.7203 -13.7203
   -13.7203 -13.7203 -13.7066 -13.7066  -2.3589  -2.3589   5.0514   5.0514
     6.9912   6.9912   6.9912   6.9912   8.8033   8.8033   9.2350   9.2350
    10.5661  10.5661  10.5661  10.5661

     occupation numbers 
     1.0000   1.0000   1.0000   1.0000   1.0000   1.0000   1.0000   1.0000
     1.0000   1.0000   1.0000   1.0000   1.0000   1.0000   1.0000   1.0000
     1.0000   1.0000   1.0000   1.0000   1.0000   1.0000   1.0000   1.0000
     1.0000   1.0000   1.0000   1.0000   0.0000   0.0000   0.0000   0.0000
     0.0000   0.0000   0.0000   0.0000

          k = 0.2210 0.0442-0.0442 (  4454 PWs)   bands (ev):

   -14.0404 -14.0404 -14.0372 -14.0372 -14.0269 -14.0269 -13.9599 -13.9599
   -13.9410 -13.9410 -13.7860 -13.7860 -13.7449 -13.7449 -13.7205 -13.7205
   -13.7131 -13.7131 -13.7012 -13.7012  -2.2332  -2.2332   4.5082   4.5082
     6.7484   6.7484   6.7639   6.7639   8.9876   8.9876   9.2298   9.2298
    10.9132  10.9132  10.9968  10.9968

     occupation numbers 
     1.0000   1.0000   1.0000   1.0000   1.0000   1.0000   1.0000   1.0000
     1.0000   1.0000   1.0000   1.0000   1.0000   1.0000   1.0000   1.0000
     1.0000   1.0000   1.0000   1.0000   1.0000   1.0000   1.0000   1.0000
     1.0000   1.0000   1.0000   1.0000   0.0000   0.0000   0.0000   0.0000
     0.0000   0.0000   0.0000   0.0000

          k = 0.2652 0.0884-0.0884 (  4444 PWs)   bands (ev):

   -14.0487 -14.0487 -14.0425 -14.0425 -14.0198 -14.0198 -13.9511 -13.9511
   -13.9300 -13.9300 -13.7970 -13.7970 -13.7546 -13.7546 -13.7272 -13.7272
   -13.7052 -13.7052 -13.6931 -13.6931  -2.0437  -2.0437   3.8325   3.8325
     6.4687   6.4687   6.5646   6.5646   8.9160   8.9160   9.5217   9.5217
    11.2030  11.2030  11.4376  11.4376

     occupation numbers 
     1.0000   1.0000   1.0000   1.0000   1.0000   1.0000   1.0000   1.0000
     1.0000   1.0000   1.0000   1.0000   1.0000   1.0000   1.0000   1.0000
     1.0000   1.0000   1.0000   1.0000   1.0000   1.0000   1.0000   1.0000
     1.0000   1.0000   1.0000   1.0000   0.0000   0.0000   0.0000   0.0000
     0.0000   0.0000   0.0000   0.0000

          k = 0.3094 0.1326-0.1326 (  4431 PWs)   bands (ev):

   -14.0560 -14.0560 -14.0475 -14.0475 -14.0111 -14.0111 -13.9420 -13.9420
   -13.9209 -13.9209 -13.8048 -13.8048 -13.7641 -13.7641 -13.7368 -13.7368
   -13.6981 -13.6981 -13.6854 -13.6854  -1.7980  -1.7980   3.1311   3.1311
     6.1860   6.1860   6.4112   6.4112   8.7750   8.7750   9.9047   9.9047
    11.3726  11.3726  11.7669  11.7669

     occupation numbers 
     1.0000   1.0000   1.0000   1.0000   1.0000   1.0000   1.0000   1.0000
     1.0000   1.0000   1.0000   1.0000   1.0000   1.0000   1.0000   1.0000
     1.0000   1.0000   1.0000   1.0000   1.0000   1.0000   1.0000   1.0000
     1.0000   1.0000   1.0000   1.0000   0.0000   0.0000   0.0000   0.0000
     0.0000   0.0000   0.0000   0.0000

          k = 0.3536 0.1768-0.1768 (  4442 PWs)   bands (ev):

   -14.0619 -14.0619 -14.0518 -14.0518 -14.0020 -14.0020 -13.9336 -13.9336
   -13.9152 -13.9152 -13.8085 -13.8085 -13.7730 -13.7730 -13.7473 -13.7473
   -13.6921 -13.6921 -13.6792 -13.6792  -1.5125  -1.5125   2.4706   2.4706
     5.9351   5.9351   6.3129   6.3129   8.6323   8.6323  10.2303  10.2303
    11.4100  11.4100  12.1302  12.1302

     occupation numbers 
     1.0000   1.0000   1.0000   1.0000   1.0000   1.0000   1.0000   1.0000
     1.0000   1.0000   1.0000   1.0000   1.0000   1.0000   1.0000   1.0000
     1.0000   1.0000   1.0000   1.0000   1.0000   1.0000   1.0000   1.0000
     1.0000   1.0000   1.0000   1.0000   0.0000   0.0000   0.0000   0.0000
     0.0000   0.0000   0.0000   0.0000

          k = 0.3977 0.2210-0.2210 (  4430 PWs)   bands (ev):

   -14.0658 -14.0658 -14.0551 -14.0551 -13.9937 -13.9937 -13.9261 -13.9261
   -13.9136 -13.9136 -13.8074 -13.8074 -13.7811 -13.7811 -13.7575 -13.7575
   -13.6874 -13.6874 -13.6750 -13.6750  -1.2229  -1.2229   1.9131   1.9131
     5.7340   5.7340   6.2743   6.2743   8.5161   8.5161  10.4317  10.4317
    11.3549  11.3549  12.6499  12.6499

     occupation numbers 
     1.0000   1.0000   1.0000   1.0000   1.0000   1.0000   1.0000   1.0000
     1.0000   1.0000   1.0000   1.0000   1.0000   1.0000   1.0000   1.0000
     1.0000   1.0000   1.0000   1.0000   1.0000   1.0000   1.0000   1.0000
     1.0000   1.0000   1.0000   1.0000   0.0000   0.0000   0.0000   0.0000
     0.0000   0.0000   0.0000   0.0000

          k =-0.2652-0.4419 0.4419 (  4438 PWs)   bands (ev):

   -14.0678 -14.0678 -14.0575 -14.0575 -13.9876 -13.9876 -13.9201 -13.9201
   -13.9159 -13.9159 -13.8017 -13.8017 -13.7882 -13.7882 -13.7659 -13.7659
   -13.6838 -13.6838 -13.6731 -13.6731  -1.0050  -1.0050   1.5483   1.5483
     5.5920   5.5920   6.2963   6.2963   8.4393   8.4393  10.5531  10.5531
    11.2554  11.2554  13.2209  13.2209

     occupation numbers 
     1.0000   1.0000   1.0000   1.0000   1.0000   1.0000   1.0000   1.0000
     1.0000   1.0000   1.0000   1.0000   1.0000   1.0000   1.0000   1.0000
     1.0000   1.0000   1.0000   1.0000   1.0000   1.0000   1.0000   1.0000
     1.0000   1.0000   1.0000   1.0000   0.0000   0.0000   0.0000   0.0000
     0.0000   0.0000   0.0000   0.0000

          k =-0.2210-0.3977 0.3977 (  4434 PWs)   bands (ev):

   -14.0677 -14.0677 -14.0590 -14.0590 -13.9850 -13.9850 -13.9210 -13.9210
   -13.9159 -13.9159 -13.7938 -13.7938 -13.7925 -13.7925 -13.7716 -13.7716
   -13.6815 -13.6815 -13.6737 -13.6737  -0.9698  -0.9698   1.4932   1.4932
     5.5151   5.5151   6.3771   6.3771   8.4066   8.4066  10.6539  10.6540
    11.1397  11.1397  13.5294  13.5294

     occupation numbers 
     1.0000   1.0000   1.0000   1.0000   1.0000   1.0000   1.0000   1.0000
     1.0000   1.0000   1.0000   1.0000   1.0000   1.0000   1.0000   1.0000
     1.0000   1.0000   1.0000   1.0000   1.0000   1.0000   1.0000   1.0000
     1.0000   1.0000   1.0000   1.0000   0.0000   0.0000   0.0000   0.0000
     0.0000   0.0000   0.0000   0.0000

          k =-0.1768-0.3536 0.3536 (  4441 PWs)   bands (ev):

   -14.0655 -14.0655 -14.0593 -14.0593 -13.9866 -13.9866 -13.9274 -13.9274
   -13.9146 -13.9146 -13.7969 -13.7969 -13.7819 -13.7819 -13.7729 -13.7729
   -13.6806 -13.6806 -13.6768 -13.6768  -1.1413  -1.1413   1.7722   1.7722
     5.5088   5.5088   6.5123   6.5123   8.4169   8.4169  10.7559  10.7559
    11.0106  11.0106  13.2680  13.2680

     occupation numbers 
     1.0000   1.0000   1.0000   1.0000   1.0000   1.0000   1.0000   1.0000
     1.0000   1.0000   1.0000   1.0000   1.0000   1.0000   1.0000   1.0000
     1.0000   1.0000   1.0000   1.0000   1.0000   1.0000   1.0000   1.0000
     1.0000   1.0000   1.0000   1.0000   0.0000   0.0000   0.0000   0.0000
     0.0000   0.0000   0.0000   0.0000

          k =-0.1326-0.3094 0.3094 (  4429 PWs)   bands (ev):

   -14.0613 -14.0613 -14.0583 -14.0583 -13.9921 -13.9921 -13.9342 -13.9342
   -13.9170 -13.9170 -13.7965 -13.7965 -13.7767 -13.7767 -13.7642 -13.7642
   -13.6824 -13.6824 -13.6813 -13.6813  -1.4188  -1.4188   2.2784   2.2784
     5.5794   5.5794   6.6937   6.6937   8.4629   8.4629  10.8362  10.8362
    10.8500  10.8500  12.6128  12.6128

     occupation numbers 
     1.0000   1.0000   1.0000   1.0000   1.0000   1.0000   1.0000   1.0000
     1.0000   1.0000   1.0000   1.0000   1.0000   1.0000   1.0000   1.0000
     1.0000   1.0000   1.0000   1.0000   1.0000   1.0000   1.0000   1.0000
     1.0000   1.0000   1.0000   1.0000   0.0000   0.0000   0.0000   0.0000
     0.0000   0.0000   0.0000   0.0000

          k =-0.0884-0.2652 0.2652 (  4446 PWs)   bands (ev):

   -14.0557 -14.0557 -14.0553 -14.0553 -14.0002 -14.0002 -13.9412 -13.9412
   -13.9234 -13.9234 -13.7919 -13.7919 -13.7733 -13.7733 -13.7509 -13.7509
   -13.6903 -13.6903 -13.6837 -13.6837  -1.7107  -1.7107   2.9059   2.9059
     5.7364   5.7364   6.9075   6.9075   8.5258   8.5258  10.6346  10.6346
    10.8033  10.8033  12.0011  12.0012

     occupation numbers 
     1.0000   1.0000   1.0000   1.0000   1.0000   1.0000   1.0000   1.0000
     1.0000   1.0000   1.0000   1.0000   1.0000   1.0000   1.0000   1.0000
     1.0000   1.0000   1.0000   1.0000   1.0000   1.0000   1.0000   1.0000
     1.0000   1.0000   1.0000   1.0000   0.0000   0.0000   0.0000   0.0000
     0.0000   0.0000   0.0000   0.0000

          k =-0.0442-0.2210 0.2210 (  4432 PWs)   bands (ev):

   -14.0516 -14.0516 -14.0480 -14.0480 -14.0092 -14.0092 -13.9486 -13.9486
   -13.9331 -13.9331 -13.7838 -13.7838 -13.7679 -13.7679 -13.7382 -13.7382
   -13.7000 -13.7000 -13.6880 -13.6880  -1.9712  -1.9712   3.5815   3.5815
     5.9945   5.9945   7.1299   7.1299   8.5613   8.5613  10.3712  10.3712
    10.5449  10.5449  11.6124  11.6124

     occupation numbers 
     1.0000   1.0000   1.0000   1.0000   1.0000   1.0000   1.0000   1.0000
     1.0000   1.0000   1.0000   1.0000   1.0000   1.0000   1.0000   1.0000
     1.0000   1.0000   1.0000   1.0000   1.0000   1.0000   1.0000   1.0000
     1.0000   1.0000   1.0000   1.0000   0.0000   0.0000   0.0000   0.0000
     0.0000   0.0000   0.0000   0.0000

          k = 0.0000-0.1768 0.1768 (  4443 PWs)   bands (ev):

   -14.0461 -14.0461 -14.0406 -14.0406 -14.0170 -14.0170 -13.9560 -13.9560
   -13.9445 -13.9445 -13.7733 -13.7733 -13.7607 -13.7607 -13.7283 -13.7283
   -13.7103 -13.7103 -13.6939 -13.6939  -2.1796  -2.1796   4.2371   4.2371
     6.3745   6.3745   7.3200   7.3200   8.4794   8.4794  10.1208  10.1208
    10.2301  10.2301  11.2658  11.2658

     occupation numbers 
     1.0000   1.0000   1.0000   1.0000   1.0000   1.0000   1.0000   1.0000
     1.0000   1.0000   1.0000   1.0000   1.0000   1.0000   1.0000   1.0000
     1.0000   1.0000   1.0000   1.0000   1.0000   1.0000   1.0000   1.0000
     1.0000   1.0000   1.0000   1.0000   0.0000   0.0000   0.0000   0.0000
     0.0000   0.0000   0.0000   0.0000

          k = 0.2652 0.0000 0.0000 (  4448 PWs)   bands (ev):

   -14.0402 -14.0402 -14.0402 -14.0402 -14.0309 -14.0309 -13.9549 -13.9549
   -13.9288 -13.9288 -13.8016 -13.8016 -13.7483 -13.7483 -13.7101 -13.7101
   -13.7101 -13.7101 -13.7050 -13.7050  -2.1291  -2.1291   4.1958   4.1958
     6.5324   6.5324   6.5324   6.5324   8.8964   8.8964   9.3678   9.3678
    11.3151  11.3151  11.3151  11.3151

     occupation numbers 
     1.0000   1.0000   1.0000   1.0000   1.0000   1.0000   1.0000   1.0000
     1.0000   1.0000   1.0000   1.0000   1.0000   1.0000   1.0000   1.0000
     1.0000   1.0000   1.0000   1.0000   1.0000   1.0000   1.0000   1.0000
     1.0000   1.0000   1.0000   1.0000   0.0000   0.0000   0.0000   0.0000
     0.0000   0.0000   0.0000   0.0000

          k = 0.3094 0.0442-0.0442 (  4449 PWs)   bands (ev):

   -14.0475 -14.0475 -14.0446 -14.0446 -14.0250 -14.0250 -13.9468 -13.9468
   -13.9163 -13.9163 -13.8154 -13.8154 -13.7566 -13.7566 -13.7160 -13.7160
   -13.7036 -13.7036 -13.6965 -13.6965  -1.9598  -1.9598   3.6910   3.6910
     6.2735   6.2735   6.3294   6.3294   8.8817   8.8817   9.4710   9.4710
    11.6478  11.6478  11.6724  11.6725

     occupation numbers 
     1.0000   1.0000   1.0000   1.0000   1.0000   1.0000   1.0000   1.0000
     1.0000   1.0000   1.0000   1.0000   1.0000   1.0000   1.0000   1.0000
     1.0000   1.0000   1.0000   1.0000   1.0000   1.0000   1.0000   1.0000
     1.0000   1.0000   1.0000   1.0000   0.0000   0.0000   0.0000   0.0000
     0.0000   0.0000   0.0000   0.0000

          k = 0.3536 0.0884-0.0884 (  4441 PWs)   bands (ev):

   -14.0563 -14.0563 -14.0493 -14.0493 -14.0147 -14.0147 -13.9375 -13.9375
   -13.9054 -13.9054 -13.8262 -13.8262 -13.7664 -13.7664 -13.7277 -13.7277
   -13.6966 -13.6966 -13.6860 -13.6860  -1.7311  -1.7311   3.0994   3.0994
     5.9547   5.9547   6.1735   6.1735   8.9740   8.9741   9.6172   9.6172
    11.7256  11.7256  11.9084  11.9084

     occupation numbers 
     1.0000   1.0000   1.0000   1.0000   1.0000   1.0000   1.0000   1.0000
     1.0000   1.0000   1.0000   1.0000   1.0000   1.0000   1.0000   1.0000
     1.0000   1.0000   1.0000   1.0000   1.0000   1.0000   1.0000   1.0000
     1.0000   1.0000   1.0000   1.0000   0.0000   0.0000   0.0000   0.0000
     0.0000   0.0000   0.0000   0.0000

          k = 0.3977 0.1326-0.1326 (  4438 PWs)   bands (ev):

   -14.0643 -14.0643 -14.0536 -14.0536 -14.0025 -14.0025 -13.9280 -13.9280
   -13.8981 -13.8981 -13.8324 -13.8324 -13.7765 -13.7765 -13.7413 -13.7413
   -13.6903 -13.6903 -13.6769 -13.6769  -1.4553  -1.4553   2.4979   2.4979
     5.6368   5.6368   6.0749   6.0749   8.9423   8.9423  10.0012  10.0012
    11.7371  11.7371  11.9869  11.9869

     occupation numbers 
     1.0000   1.0000   1.0000   1.0000   1.0000   1.0000   1.0000   1.0000
     1.0000   1.0000   1.0000   1.0000   1.0000   1.0000   1.0000   1.0000
     1.0000   1.0000   1.0000   1.0000   1.0000   1.0000   1.0000   1.0000
     1.0000   1.0000   1.0000   1.0000   0.0000   0.0000   0.0000   0.0000
     0.0000   0.0000   0.0000   0.0000

          k = 0.4419 0.1768-0.1768 (  4436 PWs)   bands (ev):

   -14.0706 -14.0706 -14.0572 -14.0572 -13.9903 -13.9903 -13.9191 -13.9191
   -13.8958 -13.8958 -13.8329 -13.8329 -13.7864 -13.7864 -13.7550 -13.7550
   -13.6850 -13.6850 -13.6699 -13.6699  -1.1591  -1.1591   1.9503   1.9503
     5.3633   5.3633   6.0384   6.0384   8.8640   8.8640  10.4193  10.4193
    11.9175  11.9175  11.9375  11.9375

     occupation numbers 
     1.0000   1.0000   1.0000   1.0000   1.0000   1.0000   1.0000   1.0000
     1.0000   1.0000   1.0000   1.0000   1.0000   1.0000   1.0000   1.0000
     1.0000   1.0000   1.0000   1.0000   1.0000   1.0000   1.0000   1.0000
     1.0000   1.0000   1.0000   1.0000   0.0000   0.0000   0.0000   0.0000
     0.0000   0.0000   0.0000   0.0000

          k =-0.2210-0.4861 0.4861 (  4428 PWs)   bands (ev):

   -14.0746 -14.0746 -14.0600 -14.0600 -13.9801 -13.9801 -13.9111 -13.9111
   -13.8989 -13.8989 -13.8275 -13.8275 -13.7957 -13.7957 -13.7668 -13.7668
   -13.6808 -13.6808 -13.6656 -13.6656  -0.9027  -0.9027   1.5382   1.5382
     5.1551   5.1551   6.0653   6.0653   8.8049   8.8049  10.6803  10.6803
    11.8155  11.8155  12.3960  12.3960

     occupation numbers 
     1.0000   1.0000   1.0000   1.0000   1.0000   1.0000   1.0000   1.0000
     1.0000   1.0000   1.0000   1.0000   1.0000   1.0000   1.0000   1.0000
     1.0000   1.0000   1.0000   1.0000   1.0000   1.0000   1.0000   1.0000
     1.0000   1.0000   1.0000   1.0000   0.0000   0.0000   0.0000   0.0000
     0.0000   0.0000   0.0000   0.0000

          k =-0.1768-0.4419 0.4419 (  4426 PWs)   bands (ev):

   -14.0761 -14.0761 -14.0618 -14.0618 -13.9737 -13.9737 -13.9063 -13.9063
   -13.9049 -13.9049 -13.8169 -13.8169 -13.8036 -13.8036 -13.7752 -13.7752
   -13.6780 -13.6780 -13.6642 -13.6642  -0.7979  -0.7979   1.3838   1.3838
     5.0237   5.0237   6.1540   6.1540   8.7822   8.7822  10.8184  10.8184
    11.6584  11.6584  13.0292  13.0292

     occupation numbers 
     1.0000   1.0000   1.0000   1.0000   1.0000   1.0000   1.0000   1.0000
     1.0000   1.0000   1.0000   1.0000   1.0000   1.0000   1.0000   1.0000
     1.0000   1.0000   1.0000   1.0000   1.0000   1.0000   1.0000   1.0000
     1.0000   1.0000   1.0000   1.0000   0.0000   0.0000   0.0000   0.0000
     0.0000   0.0000   0.0000   0.0000

          k =-0.1326-0.3977 0.3977 (  4416 PWs)   bands (ev):

   -14.0749 -14.0749 -14.0626 -14.0626 -13.9723 -13.9723 -13.9163 -13.9163
   -13.9018 -13.9018 -13.8086 -13.8086 -13.8023 -13.8023 -13.7796 -13.7796
   -13.6766 -13.6766 -13.6661 -13.6661  -0.9170  -0.9170   1.5608   1.5608
     4.9791   4.9791   6.2994   6.2994   8.7951   8.7951  10.9294  10.9294
    11.4743  11.4743  13.1341  13.1341

     occupation numbers 
     1.0000   1.0000   1.0000   1.0000   1.0000   1.0000   1.0000   1.0000
     1.0000   1.0000   1.0000   1.0000   1.0000   1.0000   1.0000   1.0000
     1.0000   1.0000   1.0000   1.0000   1.0000   1.0000   1.0000   1.0000
     1.0000   1.0000   1.0000   1.0000   0.0000   0.0000   0.0000   0.0000
     0.0000   0.0000   0.0000   0.0000

          k =-0.0884-0.3536 0.3536 (  4433 PWs)   bands (ev):

   -14.0709 -14.0709 -14.0621 -14.0621 -13.9767 -13.9767 -13.9265 -13.9265
   -13.9035 -13.9035 -13.8090 -13.8090 -13.7852 -13.7852 -13.7803 -13.7803
   -13.6769 -13.6769 -13.6713 -13.6713  -1.1784  -1.1784   1.9793   1.9793
     5.0337   5.0337   6.4921   6.4921   8.8299   8.8299  11.0399  11.0399
    11.2483  11.2483  12.4674  12.4674

     occupation numbers 
     1.0000   1.0000   1.0000   1.0000   1.0000   1.0000   1.0000   1.0000
     1.0000   1.0000   1.0000   1.0000   1.0000   1.0000   1.0000   1.0000
     1.0000   1.0000   1.0000   1.0000   1.0000   1.0000   1.0000   1.0000
     1.0000   1.0000   1.0000   1.0000   0.0000   0.0000   0.0000   0.0000
     0.0000   0.0000   0.0000   0.0000

          k =-0.0442-0.3094 0.3094 (  4434 PWs)   bands (ev):

   -14.0646 -14.0646 -14.0601 -14.0601 -13.9861 -13.9861 -13.9352 -13.9352
   -13.9103 -13.9103 -13.8041 -13.8041 -13.7785 -13.7785 -13.7671 -13.7671
   -13.6794 -13.6794 -13.6788 -13.6788  -1.4737  -1.4737   2.5111   2.5111
     5.2057   5.2057   6.7160   6.7160   8.8531   8.8531  10.9647  10.9647
    11.0709  11.0709  11.8547  11.8548

     occupation numbers 
     1.0000   1.0000   1.0000   1.0000   1.0000   1.0000   1.0000   1.0000
     1.0000   1.0000   1.0000   1.0000   1.0000   1.0000   1.0000   1.0000
     1.0000   1.0000   1.0000   1.0000   1.0000   1.0000   1.0000   1.0000
     1.0000   1.0000   1.0000   1.0000   0.0000   0.0000   0.0000   0.0000
     0.0000   0.0000   0.0000   0.0000

          k = 0.0000-0.2652 0.2652 (  4423 PWs)   bands (ev):

   -14.0565 -14.0565 -14.0565 -14.0565 -13.9980 -13.9980 -13.9424 -13.9424
   -13.9208 -13.9208 -13.7952 -13.7952 -13.7741 -13.7741 -13.7505 -13.7505
   -13.6897 -13.6897 -13.6826 -13.6826  -1.7463  -1.7463   3.0664   3.0664
     5.5198   5.5198   6.9435   6.9435   8.7948   8.7948  10.6470  10.6470
    10.8144  10.8144  11.6624  11.6624

     occupation numbers 
     1.0000   1.0000   1.0000   1.0000   1.0000   1.0000   1.0000   1.0000
     1.0000   1.0000   1.0000   1.0000   1.0000   1.0000   1.0000   1.0000
     1.0000   1.0000   1.0000   1.0000   1.0000   1.0000   1.0000   1.0000
     1.0000   1.0000   1.0000   1.0000   0.0000   0.0000   0.0000   0.0000
     0.0000   0.0000   0.0000   0.0000

          k = 0.3536 0.0000 0.0000 (  4432 PWs)   bands (ev):

   -14.0483 -14.0483 -14.0483 -14.0483 -14.0261 -14.0261 -13.9391 -13.9391
   -13.9018 -13.9018 -13.8324 -13.8324 -13.7634 -13.7634 -13.7100 -13.7100
   -13.6987 -13.6987 -13.6987 -13.6987  -1.8101  -1.8101   3.3466   3.3466
     6.1199   6.1199   6.1199   6.1199   8.6125   8.6125   9.5399   9.5399
    12.1231  12.1231  12.1231  12.1231

     occupation numbers 
     1.0000   1.0000   1.0000   1.0000   1.0000   1.0000   1.0000   1.0000
     1.0000   1.0000   1.0000   1.0000   1.0000   1.0000   1.0000   1.0000
     1.0000   1.0000   1.0000   1.0000   1.0000   1.0000   1.0000   1.0000
     1.0000   1.0000   1.0000   1.0000   0.0000   0.0000   0.0000   0.0000
     0.0000   0.0000   0.0000   0.0000

          k = 0.3977 0.0442-0.0442 (  4445 PWs)   bands (ev):

   -14.0549 -14.0549 -14.0524 -14.0524 -14.0181 -14.0181 -13.9297 -13.9297
   -13.8886 -13.8886 -13.8467 -13.8467 -13.7729 -13.7729 -13.7203 -13.7203
   -13.6926 -13.6926 -13.6888 -13.6888  -1.5991  -1.5991   2.8802   2.8802
     5.8697   5.8697   5.9565   5.9565   8.6364   8.6364   9.5070   9.5070
    12.2688  12.2689  12.4653  12.4653

     occupation numbers 
     1.0000   1.0000   1.0000   1.0000   1.0000   1.0000   1.0000   1.0000
     1.0000   1.0000   1.0000   1.0000   1.0000   1.0000   1.0000   1.0000
     1.0000   1.0000   1.0000   1.0000   1.0000   1.0000   1.0000   1.0000
     1.0000   1.0000   1.0000   1.0000   0.0000   0.0000   0.0000   0.0000
     0.0000   0.0000   0.0000   0.0000

          k = 0.4419 0.0884-0.0884 (  4440 PWs)   bands (ev):

   -14.0636 -14.0636 -14.0563 -14.0563 -14.0048 -14.0048 -13.9196 -13.9196
   -13.8787 -13.8787 -13.8564 -13.8564 -13.7834 -13.7834 -13.7354 -13.7354
   -13.6868 -13.6868 -13.6779 -13.6779  -1.3356  -1.3356   2.3674   2.3674
     5.5336   5.5336   5.8505   5.8505   8.7817   8.7817   9.6414   9.6414
    12.1430  12.1430  12.6297  12.6297

     occupation numbers 
     1.0000   1.0000   1.0000   1.0000   1.0000   1.0000   1.0000   1.0000
     1.0000   1.0000   1.0000   1.0000   1.0000   1.0000   1.0000   1.0000
     1.0000   1.0000   1.0000   1.0000   1.0000   1.0000   1.0000   1.0000
     1.0000   1.0000   1.0000   1.0000   0.0000   0.0000   0.0000   0.0000
     0.0000   0.0000   0.0000   0.0000

          k = 0.4861 0.1326-0.1326 (  4432 PWs)   bands (ev):

   -14.0717 -14.0717 -14.0597 -14.0597 -13.9898 -13.9898 -13.9095 -13.9095
   -13.8752 -13.8752 -13.8590 -13.8590 -13.7943 -13.7943 -13.7518 -13.7518
   -13.6817 -13.6817 -13.6686 -13.6686  -1.0392  -1.0392   1.8673   1.8673
     5.1959   5.1959   5.8078   5.8078   8.8232   8.8232  10.1013  10.1013
    12.0204  12.0204  12.6204  12.6204

     occupation numbers 
     1.0000   1.0000   1.0000   1.0000   1.0000   1.0000   1.0000   1.0000
     1.0000   1.0000   1.0000   1.0000   1.0000   1.0000   1.0000   1.0000
     1.0000   1.0000   1.0000   1.0000   1.0000   1.0000   1.0000   1.0000
     1.0000   1.0000   1.0000   1.0000   0.0000   0.0000   0.0000   0.0000
     0.0000   0.0000   0.0000   0.0000

          k =-0.1768-0.5303 0.5303 (  4427 PWs)   bands (ev):

   -14.0779 -14.0779 -14.0624 -14.0624 -13.9761 -13.9761 -13.9001 -13.9001
   -13.8776 -13.8776 -13.8551 -13.8551 -13.8051 -13.8051 -13.7666 -13.7666
   -13.6776 -13.6776 -13.6617 -13.6617  -0.7557  -0.7557   1.4480   1.4480
     4.9136   4.9136   5.8302   5.8302   8.8186   8.8186  10.7204  10.7204
    12.0063  12.0063  12.4958  12.4958

     occupation numbers 
     1.0000   1.0000   1.0000   1.0000   1.0000   1.0000   1.0000   1.0000
     1.0000   1.0000   1.0000   1.0000   1.0000   1.0000   1.0000   1.0000
[...]

     occupation numbers 
     1.0000   1.0000   1.0000   1.0000   1.0000   1.0000   1.0000   1.0000
     1.0000   1.0000   1.0000   1.0000   1.0000   1.0000   1.0000   1.0000
     1.0000   1.0000   1.0000   1.0000   1.0000   1.0000   1.0000   1.0000
     1.0000   1.0000   1.0000   1.0000   0.0000   0.0000   0.0000   0.0000
     0.0000   0.0000   0.0000   0.0000

          k =-0.1326-0.3977 0.5745 (  4422 PWs)   bands (ev):

   -14.0817 -14.0817 -14.0691 -14.0691 -13.9558 -13.9558 -13.8945 -13.8945
   -13.8743 -13.8743 -13.8525 -13.8525 -13.8174 -13.8174 -13.7867 -13.7867
   -13.6699 -13.6699 -13.6575 -13.6575  -0.4994  -0.4994   1.1507   1.1507
     4.6797   4.6797   5.6387   5.6387   9.4919   9.4919  10.7393  10.7393
    12.0207  12.0207  12.6996  12.6996

     occupation numbers 
     1.0000   1.0000   1.0000   1.0000   1.0000   1.0000   1.0000   1.0000
     1.0000   1.0000   1.0000   1.0000   1.0000   1.0000   1.0000   1.0000
     1.0000   1.0000   1.0000   1.0000   1.0000   1.0000   1.0000   1.0000
     1.0000   1.0000   1.0000   1.0000   0.0000   0.0000   0.0000   0.0000
     0.0000   0.0000   0.0000   0.0000

          k =-0.0884-0.3536 0.5303 (  4424 PWs)   bands (ev):

   -14.0816 -14.0816 -14.0691 -14.0691 -13.9553 -13.9553 -13.8975 -13.8975
   -13.8756 -13.8756 -13.8483 -13.8483 -13.8168 -13.8168 -13.7878 -13.7878
   -13.6698 -13.6698 -13.6577 -13.6577  -0.5539  -0.5539   1.2199   1.2199
     4.6467   4.6467   5.7078   5.7078   9.5359   9.5359  10.7327  10.7327
    12.0829  12.0829  12.6608  12.6608

     occupation numbers 
     1.0000   1.0000   1.0000   1.0000   1.0000   1.0000   1.0000   1.0000
     1.0000   1.0000   1.0000   1.0000   1.0000   1.0000   1.0000   1.0000
     1.0000   1.0000   1.0000   1.0000   1.0000   1.0000   1.0000   1.0000
     1.0000   1.0000   1.0000   1.0000   0.0000   0.0000   0.0000   0.0000
     0.0000   0.0000   0.0000   0.0000

          k =-0.0442-0.3094 0.4861 (  4427 PWs)   bands (ev):

   -14.0783 -14.0783 -14.0680 -14.0680 -13.9623 -13.9623 -13.9079 -13.9079
   -13.8780 -13.8780 -13.8458 -13.8458 -13.8038 -13.8038 -13.7835 -13.7835
   -13.6709 -13.6709 -13.6619 -13.6619  -0.7971  -0.7971   1.5390   1.5390
     4.7179   4.7179   5.8502   5.8502   9.5864   9.5864  10.6148  10.6148
    11.5102  11.5102  12.8844  12.8844

     occupation numbers 
     1.0000   1.0000   1.0000   1.0000   1.0000   1.0000   1.0000   1.0000
     1.0000   1.0000   1.0000   1.0000   1.0000   1.0000   1.0000   1.0000
     1.0000   1.0000   1.0000   1.0000   1.0000   1.0000   1.0000   1.0000
     1.0000   1.0000   1.0000   1.0000   0.0000   0.0000   0.0000   0.0000
     0.0000   0.0000   0.0000   0.0000

          k = 0.0000-0.2652 0.4419 (  4429 PWs)   bands (ev):

   -14.0722 -14.0722 -14.0657 -14.0657 -13.9751 -13.9751 -13.9186 -13.9186
   -13.8855 -13.8855 -13.8398 -13.8398 -13.7888 -13.7888 -13.7732 -13.7732
   -13.6735 -13.6735 -13.6694 -13.6694  -1.0948  -1.0948   1.9581   1.9581
     4.9126   4.9126   6.0404   6.0404   9.5844   9.5844  10.2591  10.2591
    11.3363  11.3363  12.6590  12.6590

     occupation numbers 
     1.0000   1.0000   1.0000   1.0000   1.0000   1.0000   1.0000   1.0000
     1.0000   1.0000   1.0000   1.0000   1.0000   1.0000   1.0000   1.0000
     1.0000   1.0000   1.0000   1.0000   1.0000   1.0000   1.0000   1.0000
     1.0000   1.0000   1.0000   1.0000   0.0000   0.0000   0.0000   0.0000
     0.0000   0.0000   0.0000   0.0000

          k =-0.1768-0.5303 0.7071 (  4426 PWs)   bands (ev):

   -14.0705 -14.0705 -14.0686 -14.0686 -13.9784 -13.9784 -13.8989 -13.8989
   -13.8809 -13.8809 -13.8546 -13.8546 -13.8050 -13.8050 -13.7625 -13.7625
   -13.6709 -13.6709 -13.6698 -13.6698  -0.8036  -0.8036   1.5763   1.5763
     5.0822   5.0822   5.5118   5.5118   9.2391   9.2391   9.5919   9.5919
    12.0183  12.0183  13.6181  13.6181

     occupation numbers 
     1.0000   1.0000   1.0000   1.0000   1.0000   1.0000   1.0000   1.0000
     1.0000   1.0000   1.0000   1.0000   1.0000   1.0000   1.0000   1.0000
     1.0000   1.0000   1.0000   1.0000   1.0000   1.0000   1.0000   1.0000
     1.0000   1.0000   1.0000   1.0000   0.0000   0.0000   0.0000   0.0000
     0.0000   0.0000   0.0000   0.0000

          k =-0.1326-0.4861 0.6629 (  4425 PWs)   bands (ev):

   -14.0772 -14.0772 -14.0709 -14.0709 -13.9611 -13.9611 -13.8890 -13.8890
   -13.8855 -13.8855 -13.8484 -13.8484 -13.8173 -13.8173 -13.7797 -13.7797
   -13.6680 -13.6680 -13.6619 -13.6619  -0.5002  -0.5002   1.1924   1.1924
     4.8530   4.8530   5.3905   5.3905   9.4039   9.4039  10.0670  10.0670
    11.8447  11.8447  13.5721  13.5721

     occupation numbers 
     1.0000   1.0000   1.0000   1.0000   1.0000   1.0000   1.0000   1.0000
     1.0000   1.0000   1.0000   1.0000   1.0000   1.0000   1.0000   1.0000
     1.0000   1.0000   1.0000   1.0000   1.0000   1.0000   1.0000   1.0000
     1.0000   1.0000   1.0000   1.0000   0.0000   0.0000   0.0000   0.0000
     0.0000   0.0000   0.0000   0.0000

          k =-0.0884-0.4419 0.6187 (  4420 PWs)   bands (ev):

   -14.0822 -14.0822 -14.0719 -14.0719 -13.9485 -13.9485 -13.8851 -13.8851
   -13.8774 -13.8774 -13.8504 -13.8504 -13.8285 -13.8285 -13.7914 -13.7914
   -13.6666 -13.6666 -13.6565 -13.6565  -0.2627  -0.2627   0.9171   0.9171
     4.6556   4.6556   5.3810   5.3810   9.4581   9.4581  10.7927  10.7927
    11.7433  11.7433  12.9976  12.9976

     occupation numbers 
     1.0000   1.0000   1.0000   1.0000   1.0000   1.0000   1.0000   1.0000
     1.0000   1.0000   1.0000   1.0000   1.0000   1.0000   1.0000   1.0000
     1.0000   1.0000   1.0000   1.0000   1.0000   1.0000   1.0000   1.0000
     1.0000   1.0000   1.0000   1.0000   0.0000   0.0000   0.0000   0.0000
     0.0000   0.0000   0.0000   0.0000

          k =-0.0442-0.3977 0.5745 (  4421 PWs)   bands (ev):

   -14.0841 -14.0841 -14.0719 -14.0719 -13.9453 -13.9453 -13.8813 -13.8813
   -13.8695 -13.8695 -13.8582 -13.8582 -13.8330 -13.8330 -13.7942 -13.7942
   -13.6665 -13.6665 -13.6546 -13.6546  -0.2648  -0.2648   0.9220   0.9220
     4.5432   4.5432   5.4699   5.4699   9.5338   9.5338  11.2617  11.2617
    11.9571  11.9571  12.2734  12.2734

     occupation numbers 
     1.0000   1.0000   1.0000   1.0000   1.0000   1.0000   1.0000   1.0000
     1.0000   1.0000   1.0000   1.0000   1.0000   1.0000   1.0000   1.0000
     1.0000   1.0000   1.0000   1.0000   1.0000   1.0000   1.0000   1.0000
     1.0000   1.0000   1.0000   1.0000   0.0000   0.0000   0.0000   0.0000
     0.0000   0.0000   0.0000   0.0000

          k = 0.0000-0.3536 0.5303 (  4423 PWs)   bands (ev):

   -14.0827 -14.0827 -14.0707 -14.0707 -13.9506 -13.9506 -13.8932 -13.8932
   -13.8660 -13.8660 -13.8582 -13.8582 -13.8226 -13.8226 -13.7908 -13.7908
   -13.6678 -13.6678 -13.6566 -13.6566  -0.4999  -0.4999   1.1909   1.1909
     4.5556   4.5556   5.6353   5.6353   9.6100   9.6100  11.1205  11.1205
    11.5830  11.5830  12.7527  12.7527

     occupation numbers 
     1.0000   1.0000   1.0000   1.0000   1.0000   1.0000   1.0000   1.0000
     1.0000   1.0000   1.0000   1.0000   1.0000   1.0000   1.0000   1.0000
     1.0000   1.0000   1.0000   1.0000   1.0000   1.0000   1.0000   1.0000
     1.0000   1.0000   1.0000   1.0000   0.0000   0.0000   0.0000   0.0000
     0.0000   0.0000   0.0000   0.0000

          k =-0.0884-0.5303 0.7071 (  4416 PWs)   bands (ev):

   -14.0739 -14.0739 -14.0727 -14.0727 -13.9592 -13.9592 -13.9095 -13.9095
   -13.8760 -13.8760 -13.8281 -13.8281 -13.8278 -13.8278 -13.7806 -13.7806
   -13.6659 -13.6659 -13.6648 -13.6648  -0.2778  -0.2778   0.9251   0.9251
     5.0085   5.0085   5.2221   5.2221   9.2077   9.2077   9.4151   9.4151
    12.6904  12.6904  13.9083  13.9083

     occupation numbers 
     1.0000   1.0000   1.0000   1.0000   1.0000   1.0000   1.0000   1.0000
     1.0000   1.0000   1.0000   1.0000   1.0000   1.0000   1.0000   1.0000
     1.0000   1.0000   1.0000   1.0000   1.0000   1.0000   1.0000   1.0000
     1.0000   1.0000   1.0000   1.0000   0.0000   0.0000   0.0000   0.0000
     0.0000   0.0000   0.0000   0.0000

          k =-0.0442-0.4861 0.6629 (  4416 PWs)   bands (ev):

   -14.0795 -14.0795 -14.0738 -14.0738 -13.9425 -13.9425 -13.9103 -13.9103
   -13.8656 -13.8656 -13.8405 -13.8405 -13.8262 -13.8262 -13.7965 -13.7965
   -13.6645 -13.6645 -13.6588 -13.6588   0.0055   0.0055   0.6252   0.6252
     4.7992   4.7992   5.1809   5.1809   9.3520   9.3520  10.0163  10.0163
    12.5084  12.5084  13.2161  13.2161

     occupation numbers 
     1.0000   1.0000   1.0000   1.0000   1.0000   1.0000   1.0000   1.0000
     1.0000   1.0000   1.0000   1.0000   1.0000   1.0000   1.0000   1.0000
     1.0000   1.0000   1.0000   1.0000   1.0000   1.0000   1.0000   1.0000
     1.0000   1.0000   1.0000   1.0000   0.0000   0.0000   0.0000   0.0000
     0.0000   0.0000   0.0000   0.0000

          k = 0.0000-0.4419 0.6187 (  4415 PWs)   bands (ev):

   -14.0834 -14.0834 -14.0734 -14.0734 -13.9395 -13.9395 -13.8944 -13.8944
   -13.8648 -13.8648 -13.8447 -13.8447 -13.8394 -13.8394 -13.7988 -13.7988
   -13.6648 -13.6648 -13.6550 -13.6550   0.0031   0.0031   0.6367   0.6367
     4.6068   4.6068   5.2854   5.2854   9.4384   9.4384  10.8329  10.8329
    12.3507  12.3508  12.3615  12.3615

     occupation numbers 
     1.0000   1.0000   1.0000   1.0000   1.0000   1.0000   1.0000   1.0000
     1.0000   1.0000   1.0000   1.0000   1.0000   1.0000   1.0000   1.0000
     1.0000   1.0000   1.0000   1.0000   1.0000   1.0000   1.0000   1.0000
     1.0000   1.0000   1.0000   1.0000   0.0000   0.0000   0.0000   0.0000
     0.0000   0.0000   0.0000   0.0000

          k =-0.7071 0.1768 0.0000 (  4420 PWs)   bands (ev):

   -14.0746 -14.0746 -14.0746 -14.0746 -13.9362 -13.9362 -13.9357 -13.9357
   -13.8531 -13.8531 -13.8508 -13.8508 -13.8032 -13.8032 -13.8027 -13.8027
   -13.6635 -13.6635 -13.6635 -13.6635   0.3021   0.3021   0.3031   0.3031
     5.0540   5.0540   5.0540   5.0540   9.2707   9.2707   9.2708   9.2708
    13.4106  13.4106  13.4107  13.4107

     occupation numbers 
     1.0000   1.0000   1.0000   1.0000   1.0000   1.0000   1.0000   1.0000
     1.0000   1.0000   1.0000   1.0000   1.0000   1.0000   1.0000   1.0000
     1.0000   1.0000   1.0000   1.0000   1.0000   1.0000   1.0000   1.0000
     1.0000   1.0000   1.0000   1.0000   0.0000   0.0000   0.0000   0.0000
     0.0000   0.0000   0.0000   0.0000

          k =-0.1768-0.4419 0.7071 (  4426 PWs)   bands (ev):

   -14.0773 -14.0773 -14.0710 -14.0710 -13.9606 -13.9606 -13.8994 -13.8994
   -13.8674 -13.8674 -13.8624 -13.8624 -13.8090 -13.8090 -13.7822 -13.7822
   -13.6679 -13.6679 -13.6625 -13.6625  -0.6703  -0.6703   1.4036   1.4036
     4.7744   4.7744   5.5483   5.5483   9.9854   9.9854  10.1231  10.1231
    11.2895  11.2895  13.3475  13.3475

     occupation numbers 
     1.0000   1.0000   1.0000   1.0000   1.0000   1.0000   1.0000   1.0000
     1.0000   1.0000   1.0000   1.0000   1.0000   1.0000   1.0000   1.0000
     1.0000   1.0000   1.0000   1.0000   1.0000   1.0000   1.0000   1.0000
     1.0000   1.0000   1.0000   1.0000   0.0000   0.0000   0.0000   0.0000
     0.0000   0.0000   0.0000   0.0000

          k =-0.1326-0.3977 0.6629 (  4423 PWs)   bands (ev):

   -14.0816 -14.0816 -14.0731 -14.0731 -13.9469 -13.9469 -13.8890 -13.8890
   -13.8722 -13.8722 -13.8563 -13.8563 -13.8233 -13.8233 -13.7935 -13.7935
   -13.6655 -13.6655 -13.6574 -13.6574  -0.3871  -0.3871   1.0648   1.0648
     4.6473   4.6473   5.3931   5.3931  10.0120  10.0120  10.6157  10.6157
    11.3998  11.3998  12.8841  12.8841

     occupation numbers 
     1.0000   1.0000   1.0000   1.0000   1.0000   1.0000   1.0000   1.0000
     1.0000   1.0000   1.0000   1.0000   1.0000   1.0000   1.0000   1.0000
     1.0000   1.0000   1.0000   1.0000   1.0000   1.0000   1.0000   1.0000
     1.0000   1.0000   1.0000   1.0000   0.0000   0.0000   0.0000   0.0000
     0.0000   0.0000   0.0000   0.0000

          k =-0.0884-0.3536 0.6187 (  4424 PWs)   bands (ev):

   -14.0832 -14.0832 -14.0737 -14.0737 -13.9416 -13.9416 -13.8852 -13.8852
   -13.8702 -13.8702 -13.8570 -13.8570 -13.8298 -13.8298 -13.7976 -13.7976
   -13.6648 -13.6648 -13.6555 -13.6555  -0.2494  -0.2494   0.9074   0.9074
     4.6070   4.6070   5.3364   5.3364  10.0115  10.0115  10.7432  10.7432
    11.9164  11.9164  12.2094  12.2094

     occupation numbers 
     1.0000   1.0000   1.0000   1.0000   1.0000   1.0000   1.0000   1.0000
     1.0000   1.0000   1.0000   1.0000   1.0000   1.0000   1.0000   1.0000
     1.0000   1.0000   1.0000   1.0000   1.0000   1.0000   1.0000   1.0000
     1.0000   1.0000   1.0000   1.0000   0.0000   0.0000   0.0000   0.0000
     0.0000   0.0000   0.0000   0.0000

          k =-0.0884-0.4419 0.7071 (  4429 PWs)   bands (ev):

   -14.0796 -14.0796 -14.0758 -14.0758 -13.9420 -13.9420 -13.8943 -13.8943
   -13.8776 -13.8776 -13.8391 -13.8391 -13.8314 -13.8314 -13.7970 -13.7970
   -13.6626 -13.6626 -13.6590 -13.6590  -0.1947  -0.1947   0.8548   0.8548
     4.7645   4.7645   5.1552   5.1552  10.0645  10.0645  10.1044  10.1044
    11.6664  11.6664  13.0537  13.0537

     occupation numbers 
     1.0000   1.0000   1.0000   1.0000   1.0000   1.0000   1.0000   1.0000
     1.0000   1.0000   1.0000   1.0000   1.0000   1.0000   1.0000   1.0000
     1.0000   1.0000   1.0000   1.0000   1.0000   1.0000   1.0000   1.0000
     1.0000   1.0000   1.0000   1.0000   0.0000   0.0000   0.0000   0.0000
     0.0000   0.0000   0.0000   0.0000

          k =-0.0442-0.3977 0.6629 (  4418 PWs)   bands (ev):

   -14.0823 -14.0823 -14.0771 -14.0771 -13.9295 -13.9295 -13.8959 -13.8959
   -13.8687 -13.8687 -13.8445 -13.8445 -13.8355 -13.8355 -13.8073 -13.8073
   -13.6612 -13.6612 -13.6560 -13.6560   0.0249   0.0249   0.6257   0.6257
     4.6832   4.6832   5.0751   5.0751  10.1418  10.1418  10.8123  10.8123
    11.5877  11.5877  12.1998  12.1998

     occupation numbers 
     1.0000   1.0000   1.0000   1.0000   1.0000   1.0000   1.0000   1.0000
     1.0000   1.0000   1.0000   1.0000   1.0000   1.0000   1.0000   1.0000
     1.0000   1.0000   1.0000   1.0000   1.0000   1.0000   1.0000   1.0000
     1.0000   1.0000   1.0000   1.0000   0.0000   0.0000   0.0000   0.0000
     0.0000   0.0000   0.0000   0.0000

          k =-0.0000-0.3536 0.6187 (  4418 PWs)   bands (ev):

   -14.0831 -14.0831 -14.0761 -14.0761 -13.9334 -13.9334 -13.8857 -13.8857
   -13.8750 -13.8750 -13.8441 -13.8441 -13.8394 -13.8394 -13.8039 -13.8039
   -13.6623 -13.6623 -13.6554 -13.6554  -0.0969  -0.0969   0.7556   0.7556
     4.6180   4.6180   5.1789   5.1789  10.1904  10.1904  10.9941  10.9941
    11.4772  11.4772  12.1052  12.1052

     occupation numbers 
     1.0000   1.0000   1.0000   1.0000   1.0000   1.0000   1.0000   1.0000
     1.0000   1.0000   1.0000   1.0000   1.0000   1.0000   1.0000   1.0000
     1.0000   1.0000   1.0000   1.0000   1.0000   1.0000   1.0000   1.0000
     1.0000   1.0000   1.0000   1.0000   0.0000   0.0000   0.0000   0.0000
     0.0000   0.0000   0.0000   0.0000

          k =-0.7071 0.2652 0.0000 (  4416 PWs)   bands (ev):

   -14.0790 -14.0790 -14.0790 -14.0790 -13.9199 -13.9199 -13.9193 -13.9193
   -13.8557 -13.8557 -13.8534 -13.8534 -13.8170 -13.8170 -13.8163 -13.8163
   -13.6592 -13.6592 -13.6592 -13.6592   0.3178   0.3178   0.3188   0.3188
     4.8908   4.8908   4.8908   4.8908  10.0747  10.0747  10.0749  10.0749
    12.3328  12.3328  12.3330  12.3330

     occupation numbers 
     1.0000   1.0000   1.0000   1.0000   1.0000   1.0000   1.0000   1.0000
     1.0000   1.0000   1.0000   1.0000   1.0000   1.0000   1.0000   1.0000
     1.0000   1.0000   1.0000   1.0000   1.0000   1.0000   1.0000   1.0000
     1.0000   1.0000   1.0000   1.0000   0.0000   0.0000   0.0000   0.0000
     0.0000   0.0000   0.0000   0.0000

          k =-0.7071 0.3536 0.0000 (  4420 PWs)   bands (ev):

   -14.0807 -14.0807 -14.0806 -14.0806 -13.9117 -13.9117 -13.9109 -13.9109
   -13.8581 -13.8581 -13.8558 -13.8558 -13.8229 -13.8229 -13.8221 -13.8221
   -13.6576 -13.6576 -13.6576 -13.6576   0.3244   0.3244   0.3255   0.3255
     4.8287   4.8287   4.8288   4.8288  10.7353  10.7353  10.7358  10.7358
    11.5756  11.5756  11.5761  11.5761

     occupation numbers 
     1.0000   1.0000   1.0000   1.0000   1.0000   1.0000   1.0000   1.0000
     1.0000   1.0000   1.0000   1.0000   1.0000   1.0000   1.0000   1.0000
     1.0000   1.0000   1.0000   1.0000   1.0000   1.0000   1.0000   1.0000
     1.0000   1.0000   1.0000   1.0000   0.0000   0.0000   0.0000   0.0000
     0.0000   0.0000   0.0000   0.0000

     the Fermi energy is     7.5524 ev

!    total energy              =    -884.12851688 Ry
     Harris-Foulkes estimate   =    -884.12851674 Ry
     estimated scf accuracy    <       0.00000065 Ry

     total all-electron energy =    -24709.384120 Ry

     The total energy is the sum of the following terms:

     one-electron contribution =    -155.40887789 Ry
     hartree contribution      =      78.95155472 Ry
     xc contribution           =     -54.77258733 Ry
     ewald contribution        =    -167.52979534 Ry
     one-center paw contrib.   =    -585.36881089 Ry
     smearing contrib. (-TS)   =      -0.00000014 Ry

     convergence has been achieved in   5 iterations

     Writing output data file Sn.save
 
     init_run     :      2.85s CPU      3.37s WALL (       1 calls)
     electrons    :     61.74s CPU     66.59s WALL (       1 calls)

     Called by init_run:
     wfcinit      :      2.59s CPU      2.86s WALL (       1 calls)
     potinit      :      0.07s CPU      0.11s WALL (       1 calls)

     Called by electrons:
     c_bands      :     53.95s CPU     58.42s WALL (       6 calls)
     sum_band     :      7.39s CPU      7.66s WALL (       6 calls)
     v_of_rho     :      0.02s CPU      0.03s WALL (       6 calls)
     v_h          :      0.00s CPU      0.00s WALL (       6 calls)
     v_xc         :      0.02s CPU      0.03s WALL (       6 calls)
     newd         :      0.05s CPU      0.08s WALL (       6 calls)
     PAW_pot      :      0.37s CPU      0.45s WALL (       6 calls)
     mix_rho      :      0.01s CPU      0.02s WALL (       6 calls)

     Called by c_bands:
     init_us_2    :      0.18s CPU      0.19s WALL (    1885 calls)
     cegterg      :     52.22s CPU     56.59s WALL (     870 calls)

     Called by sum_band:
     sum_band:bec :      0.05s CPU      0.05s WALL (     870 calls)
     addusdens    :      0.05s CPU      0.07s WALL (       6 calls)

     Called by *egterg:
     h_psi        :     38.55s CPU     40.03s WALL (    3580 calls)
     s_psi        :      0.85s CPU      0.86s WALL (    3580 calls)
     g_psi        :      0.21s CPU      0.21s WALL (    2565 calls)
     cdiaghg      :      8.12s CPU      8.33s WALL (    3290 calls)
     cegterg:over :      2.49s CPU      2.52s WALL (    2565 calls)
     cegterg:upda :      1.38s CPU      1.41s WALL (    2565 calls)
     cegterg:last :      0.74s CPU      0.74s WALL (     990 calls)

     Called by h_psi:
     h_psi:vloc   :     36.32s CPU     37.72s WALL (    3580 calls)
     h_psi:vnl    :      2.04s CPU      2.10s WALL (    3580 calls)
     add_vuspsi   :      0.93s CPU      0.95s WALL (    3580 calls)

     General routines
     calbec       :      1.41s CPU      1.45s WALL (    4450 calls)
     fft          :      0.04s CPU      0.05s WALL (     116 calls)
     fftw         :     38.56s CPU     40.04s WALL (  429844 calls)
     davcio       :      0.03s CPU      0.24s WALL (     145 calls)
 
     Parallel routines
     fft_scatter  :     16.76s CPU     17.48s WALL (  429960 calls)

     PAW routines
     PAW_pot      :      0.37s CPU      0.45s WALL (       6 calls)
     PAW_symme    :      0.00s CPU      0.01s WALL (      12 calls)
 
     PWSCF        :  1m 5.55s CPU     1m11.58s WALL

 
   This run was terminated on:  19:58:22  15Mar2020            

=------------------------------------------------------------------------------=
   JOB DONE.
=------------------------------------------------------------------------------=
