
     Program PWSCF v.5.4.0 starts on 15Mar2020 at 19:57:12 

     This program is part of the open-source Quantum ESPRESSO suite
     for quantum simulation of materials; please cite
         "P. Giannozzi et al., J. Phys.:Condens. Matter 21 395502 (2009);
          URL http://www.quantum-espresso.org", 
     in publications or presentations arising from this work. More details at
     http://www.quantum-espresso.org/quote

     Parallel version (MPI & OpenMP), running on      16 processor cores
     Number of MPI processes:                16
     Threads/MPI process:                     1
     R & G space division:  proc/nbgrp/npool/nimage =      16
     Waiting for input...
     Reading input from standard input
Warning: card &IONS ignored
Warning: card / ignored
Warning: card &CELL ignored
Warning: card / ignored

     Current dimensions of program PWSCF are:
     Max number of different atomic species (ntypx) = 10
     Max number of k-points (npk) =  40000
     Max angular momentum in pseudopotentials (lmaxx) =  3
               file Sn.pbe-dn-kjpaw_psl.0.2.UPF: wavefunction(s)  5P 4D renormalized
     Message from routine setup:
     At least one non s.o. pseudo

     Subspace diagonalization in iterative solution of the eigenvalue problem:
     a serial algorithm will be used

 
     Parallelization info
     --------------------
     sticks:   dense  smooth     PW     G-vecs:    dense   smooth      PW
     Min          68      68     19                 1497     1497     237
     Max          69      69     20                 1499     1499     242
     Sum        1099    1099    313                23973    23973    3839
 

     Title: 
     Sn                                                                         


     bravais-lattice index     =            0
     lattice parameter (alat)  =       8.9127  a.u.
     unit-cell volume          =     500.6268 (a.u.)^3
     number of atoms/cell      =            2
     number of atomic types    =            1
     number of electrons       =        28.00
     number of Kohn-Sham states=           36
     kinetic-energy cutoff     =      50.0000  Ry
     charge density cutoff     =     200.0000  Ry
     convergence threshold     =      1.0E-06
     mixing beta               =       0.7000
     number of iterations used =            8  plain     mixing
     Exchange-correlation      =  SLA  PW   PBX  PBC ( 1  4  3  4 0 0)
     Non magnetic calculation with spin-orbit


     celldm(1)=   8.912709  celldm(2)=   0.000000  celldm(3)=   0.000000
     celldm(4)=   0.000000  celldm(5)=   0.000000  celldm(6)=   0.000000

     crystal axes: (cart. coord. in units of alat)
               a(1) = (   0.000000   0.707107   0.707107 )  
               a(2) = (   0.707107   0.000000   0.707107 )  
               a(3) = (   0.707107   0.707107   0.000000 )  

     reciprocal axes: (cart. coord. in units 2 pi/alat)
               b(1) = ( -0.707107  0.707107  0.707107 )  
               b(2) = (  0.707107 -0.707107  0.707107 )  
               b(3) = (  0.707107  0.707107 -0.707107 )  


     PseudoPot. # 1 for Sn read from file:
     ../PseudopotentialDatabase/Sn.pbe-dn-kjpaw_psl.0.2.UPF
     MD5 check sum: b79c227927c2421b8b427190f2e58519
     Pseudo is Projector augmented-wave + core cor, Zval = 14.0
     Generated using "atomic" code by A. Dal Corso  v.5.0.2 svn rev. 9415
     Shape of augmentation charge: BESSEL
     Using radial grid of 1243 points,  6 beta functions with: 
                l(1) =   0
                l(2) =   0
                l(3) =   1
                l(4) =   1
                l(5) =   2
                l(6) =   2
     Q(r) pseudized with 0 coefficients 


     atomic species   valence    mass     pseudopotential
        Sn            14.00   118.71000     Sn( 1.00)

     24 Sym. Ops. (no inversion) found
          (note: 24 additional sym.ops. were found but ignored
           their fractional translations are incommensurate with FFT grid)

                                    s                        frac. trans.

      isym =  1     identity                                     

 cryst.   s( 1) = (     1          0          0      )
                  (     0          1          0      )
                  (     0          0          1      )

 cart.    s( 1) = (  1.0000000  0.0000000  0.0000000 )
                  (  0.0000000  1.0000000  0.0000000 )
                  (  0.0000000  0.0000000  1.0000000 )


      isym =  2     180 deg rotation - cart. axis [0,0,1]        

 cryst.   s( 2) = (     0          1         -1      )
                  (     1          0         -1      )
                  (     0          0         -1      )

 cart.    s( 2) = ( -1.0000000  0.0000000  0.0000000 )
                  (  0.0000000 -1.0000000  0.0000000 )
                  (  0.0000000  0.0000000  1.0000000 )


      isym =  3     180 deg rotation - cart. axis [0,1,0]        

 cryst.   s( 3) = (     0         -1          1      )
                  (     0         -1          0      )
                  (     1         -1          0      )

 cart.    s( 3) = ( -1.0000000  0.0000000  0.0000000 )
                  (  0.0000000  1.0000000  0.0000000 )
                  (  0.0000000  0.0000000 -1.0000000 )


      isym =  4     180 deg rotation - cart. axis [1,0,0]        

 cryst.   s( 4) = (    -1          0          0      )
                  (    -1          0          1      )
                  (    -1          1          0      )

 cart.    s( 4) = (  1.0000000  0.0000000  0.0000000 )
                  (  0.0000000 -1.0000000  0.0000000 )
                  (  0.0000000  0.0000000 -1.0000000 )


      isym =  5     120 deg rotation - cart. axis [-1,-1,-1]     

 cryst.   s( 5) = (     0          0          1      )
                  (     1          0          0      )
                  (     0          1          0      )

 cart.    s( 5) = (  0.0000000  1.0000000  0.0000000 )
                  (  0.0000000  0.0000000  1.0000000 )
                  (  1.0000000  0.0000000  0.0000000 )


      isym =  6     120 deg rotation - cart. axis [-1,1,1]       

 cryst.   s( 6) = (     1         -1          0      )
                  (     0         -1          1      )
                  (     0         -1          0      )

 cart.    s( 6) = (  0.0000000 -1.0000000  0.0000000 )
                  (  0.0000000  0.0000000  1.0000000 )
                  ( -1.0000000  0.0000000  0.0000000 )


      isym =  7     120 deg rotation - cart. axis [1,1,-1]       

 cryst.   s( 7) = (    -1          1          0      )
                  (    -1          0          0      )
                  (    -1          0          1      )

 cart.    s( 7) = (  0.0000000  1.0000000  0.0000000 )
                  (  0.0000000  0.0000000 -1.0000000 )
                  ( -1.0000000  0.0000000  0.0000000 )


      isym =  8     120 deg rotation - cart. axis [1,-1,1]       

 cryst.   s( 8) = (     0          0         -1      )
                  (     0          1         -1      )
                  (     1          0         -1      )

 cart.    s( 8) = (  0.0000000 -1.0000000  0.0000000 )
                  (  0.0000000  0.0000000 -1.0000000 )
                  (  1.0000000  0.0000000  0.0000000 )


      isym =  9     120 deg rotation - cart. axis [1,1,1]        

 cryst.   s( 9) = (     0          1          0      )
                  (     0          0          1      )
                  (     1          0          0      )

 cart.    s( 9) = (  0.0000000  0.0000000  1.0000000 )
                  (  1.0000000  0.0000000  0.0000000 )
                  (  0.0000000  1.0000000  0.0000000 )


      isym = 10     120 deg rotation - cart. axis [-1,1,-1]      

 cryst.   s(10) = (    -1          0          1      )
                  (    -1          1          0      )
                  (    -1          0          0      )

 cart.    s(10) = (  0.0000000  0.0000000  1.0000000 )
                  ( -1.0000000  0.0000000  0.0000000 )
                  (  0.0000000 -1.0000000  0.0000000 )


      isym = 11     120 deg rotation - cart. axis [1,-1,-1]      

 cryst.   s(11) = (     1          0         -1      )
                  (     0          0         -1      )
                  (     0          1         -1      )

 cart.    s(11) = (  0.0000000  0.0000000 -1.0000000 )
                  ( -1.0000000  0.0000000  0.0000000 )
                  (  0.0000000  1.0000000  0.0000000 )


      isym = 12     120 deg rotation - cart. axis [-1,-1,1]      

 cryst.   s(12) = (     0         -1          0      )
                  (     1         -1          0      )
                  (     0         -1          1      )

 cart.    s(12) = (  0.0000000  0.0000000 -1.0000000 )
                  (  1.0000000  0.0000000  0.0000000 )
                  (  0.0000000 -1.0000000  0.0000000 )


      isym = 13     inv. 180 deg rotation - cart. axis [1,1,0]   

 cryst.   s(13) = (     1          0         -1      )
                  (     0          1         -1      )
                  (     0          0         -1      )

 cart.    s(13) = (  0.0000000 -1.0000000  0.0000000 )
                  ( -1.0000000  0.0000000  0.0000000 )
                  (  0.0000000  0.0000000  1.0000000 )


      isym = 14     inv. 180 deg rotation - cart. axis [1,-1,0]  

 cryst.   s(14) = (     0          1          0      )
                  (     1          0          0      )
                  (     0          0          1      )

 cart.    s(14) = (  0.0000000  1.0000000  0.0000000 )
                  (  1.0000000  0.0000000  0.0000000 )
                  (  0.0000000  0.0000000  1.0000000 )


      isym = 15     inv.  90 deg rotation - cart. axis [0,0,-1]  

 cryst.   s(15) = (     0         -1          0      )
                  (     0         -1          1      )
                  (     1         -1          0      )

 cart.    s(15) = (  0.0000000 -1.0000000  0.0000000 )
                  (  1.0000000  0.0000000  0.0000000 )
                  (  0.0000000  0.0000000 -1.0000000 )


      isym = 16     inv.  90 deg rotation - cart. axis [0,0,1]   

 cryst.   s(16) = (    -1          0          1      )
                  (    -1          0          0      )
                  (    -1          1          0      )

 cart.    s(16) = (  0.0000000  1.0000000  0.0000000 )
                  ( -1.0000000  0.0000000  0.0000000 )
                  (  0.0000000  0.0000000 -1.0000000 )


      isym = 17     inv. 180 deg rotation - cart. axis [1,0,1]   

 cryst.   s(17) = (     1         -1          0      )
                  (     0         -1          0      )
                  (     0         -1          1      )

 cart.    s(17) = (  0.0000000  0.0000000 -1.0000000 )
                  (  0.0000000  1.0000000  0.0000000 )
                  ( -1.0000000  0.0000000  0.0000000 )


      isym = 18     inv. 180 deg rotation - cart. axis [-1,0,1]  

 cryst.   s(18) = (     0          0          1      )
                  (     0          1          0      )
                  (     1          0          0      )

 cart.    s(18) = (  0.0000000  0.0000000  1.0000000 )
                  (  0.0000000  1.0000000  0.0000000 )
                  (  1.0000000  0.0000000  0.0000000 )


      isym = 19     inv.  90 deg rotation - cart. axis [0,1,0]   

 cryst.   s(19) = (     0          0         -1      )
                  (     1          0         -1      )
                  (     0          1         -1      )

 cart.    s(19) = (  0.0000000  0.0000000 -1.0000000 )
                  (  0.0000000 -1.0000000  0.0000000 )
                  (  1.0000000  0.0000000  0.0000000 )


      isym = 20     inv.  90 deg rotation - cart. axis [0,-1,0]  

 cryst.   s(20) = (    -1          1          0      )
                  (    -1          0          1      )
                  (    -1          0          0      )

 cart.    s(20) = (  0.0000000  0.0000000  1.0000000 )
                  (  0.0000000 -1.0000000  0.0000000 )
                  ( -1.0000000  0.0000000  0.0000000 )


      isym = 21     inv. 180 deg rotation - cart. axis [0,1,1]   

 cryst.   s(21) = (    -1          0          0      )
                  (    -1          1          0      )
                  (    -1          0          1      )

 cart.    s(21) = (  1.0000000  0.0000000  0.0000000 )
                  (  0.0000000  0.0000000 -1.0000000 )
                  (  0.0000000 -1.0000000  0.0000000 )


      isym = 22     inv. 180 deg rotation - cart. axis [0,1,-1]  

 cryst.   s(22) = (     1          0          0      )
                  (     0          0          1      )
                  (     0          1          0      )

 cart.    s(22) = (  1.0000000  0.0000000  0.0000000 )
                  (  0.0000000  0.0000000  1.0000000 )
                  (  0.0000000  1.0000000  0.0000000 )


      isym = 23     inv.  90 deg rotation - cart. axis [-1,0,0]  

 cryst.   s(23) = (     0          1         -1      )
                  (     0          0         -1      )
                  (     1          0         -1      )

 cart.    s(23) = ( -1.0000000  0.0000000  0.0000000 )
                  (  0.0000000  0.0000000 -1.0000000 )
                  (  0.0000000  1.0000000  0.0000000 )


      isym = 24     inv.  90 deg rotation - cart. axis [1,0,0]   

 cryst.   s(24) = (     0         -1          1      )
                  (     1         -1          0      )
                  (     0         -1          0      )

 cart.    s(24) = ( -1.0000000  0.0000000  0.0000000 )
                  (  0.0000000  0.0000000  1.0000000 )
                  (  0.0000000 -1.0000000  0.0000000 )


   Cartesian axes

     site n.     atom                  positions (alat units)
         1           Sn  tau(   1) = (   0.0000000   0.0000000   0.0000000  )
         2           Sn  tau(   2) = (   0.3535534   0.3535534   0.3535534  )

   Crystallographic axes

     site n.     atom                  positions (cryst. coord.)
         1           Sn  tau(   1) = (  0.0000000  0.0000000  0.0000000  )
         2           Sn  tau(   2) = (  0.2500000  0.2500000  0.2500000  )

     number of k points=   145  gaussian smearing, width (Ry)=  0.0001
                       cart. coord. in units 2pi/alat
        k(    1) = (   0.0000000   0.0000000   0.0000000), wk =   0.0002441
        k(    2) = (   0.0441942   0.0441942  -0.0441942), wk =   0.0019531
        k(    3) = (   0.0883883   0.0883883  -0.0883883), wk =   0.0019531
        k(    4) = (   0.1325825   0.1325825  -0.1325825), wk =   0.0019531
        k(    5) = (   0.1767767   0.1767767  -0.1767767), wk =   0.0019531
        k(    6) = (   0.2209709   0.2209709  -0.2209709), wk =   0.0019531
        k(    7) = (   0.2651650   0.2651650  -0.2651650), wk =   0.0019531
        k(    8) = (   0.3093592   0.3093592  -0.3093592), wk =   0.0019531
        k(    9) = (  -0.3535534  -0.3535534   0.3535534), wk =   0.0009766
        k(   10) = (   0.0883883   0.0000000   0.0000000), wk =   0.0014648
        k(   11) = (   0.1325825   0.0441942  -0.0441942), wk =   0.0058594
        k(   12) = (   0.1767767   0.0883883  -0.0883883), wk =   0.0058594
        k(   13) = (   0.2209709   0.1325825  -0.1325825), wk =   0.0058594
        k(   14) = (   0.2651650   0.1767767  -0.1767767), wk =   0.0058594
        k(   15) = (   0.3093592   0.2209709  -0.2209709), wk =   0.0058594
        k(   16) = (   0.3535534   0.2651650  -0.2651650), wk =   0.0058594
        k(   17) = (  -0.3093592  -0.3977476   0.3977476), wk =   0.0058594
        k(   18) = (  -0.2651650  -0.3535534   0.3535534), wk =   0.0058594
        k(   19) = (  -0.2209709  -0.3093592   0.3093592), wk =   0.0058594
        k(   20) = (  -0.1767767  -0.2651650   0.2651650), wk =   0.0058594
        k(   21) = (  -0.1325825  -0.2209709   0.2209709), wk =   0.0058594
        k(   22) = (  -0.0883883  -0.1767767   0.1767767), wk =   0.0058594
        k(   23) = (  -0.0441942  -0.1325825   0.1325825), wk =   0.0058594
        k(   24) = (   0.0000000  -0.0883883   0.0883883), wk =   0.0029297
        k(   25) = (   0.1767767   0.0000000   0.0000000), wk =   0.0014648
        k(   26) = (   0.2209709   0.0441942  -0.0441942), wk =   0.0058594
        k(   27) = (   0.2651650   0.0883883  -0.0883883), wk =   0.0058594
        k(   28) = (   0.3093592   0.1325825  -0.1325825), wk =   0.0058594
        k(   29) = (   0.3535534   0.1767767  -0.1767767), wk =   0.0058594
        k(   30) = (   0.3977476   0.2209709  -0.2209709), wk =   0.0058594
        k(   31) = (  -0.2651650  -0.4419417   0.4419417), wk =   0.0058594
        k(   32) = (  -0.2209709  -0.3977476   0.3977476), wk =   0.0058594
        k(   33) = (  -0.1767767  -0.3535534   0.3535534), wk =   0.0058594
        k(   34) = (  -0.1325825  -0.3093592   0.3093592), wk =   0.0058594
        k(   35) = (  -0.0883883  -0.2651650   0.2651650), wk =   0.0058594
        k(   36) = (  -0.0441942  -0.2209709   0.2209709), wk =   0.0058594
        k(   37) = (   0.0000000  -0.1767767   0.1767767), wk =   0.0029297
        k(   38) = (   0.2651650   0.0000000   0.0000000), wk =   0.0014648
        k(   39) = (   0.3093592   0.0441942  -0.0441942), wk =   0.0058594
        k(   40) = (   0.3535534   0.0883883  -0.0883883), wk =   0.0058594
        k(   41) = (   0.3977476   0.1325825  -0.1325825), wk =   0.0058594
        k(   42) = (   0.4419417   0.1767767  -0.1767767), wk =   0.0058594
        k(   43) = (  -0.2209709  -0.4861359   0.4861359), wk =   0.0058594
        k(   44) = (  -0.1767767  -0.4419417   0.4419417), wk =   0.0058594
        k(   45) = (  -0.1325825  -0.3977476   0.3977476), wk =   0.0058594
        k(   46) = (  -0.0883883  -0.3535534   0.3535534), wk =   0.0058594
        k(   47) = (  -0.0441942  -0.3093592   0.3093592), wk =   0.0058594
        k(   48) = (   0.0000000  -0.2651650   0.2651650), wk =   0.0029297
        k(   49) = (   0.3535534   0.0000000   0.0000000), wk =   0.0014648
        k(   50) = (   0.3977476   0.0441942  -0.0441942), wk =   0.0058594
        k(   51) = (   0.4419417   0.0883883  -0.0883883), wk =   0.0058594
        k(   52) = (   0.4861359   0.1325825  -0.1325825), wk =   0.0058594
        k(   53) = (  -0.1767767  -0.5303301   0.5303301), wk =   0.0058594
        k(   54) = (  -0.1325825  -0.4861359   0.4861359), wk =   0.0058594
        k(   55) = (  -0.0883883  -0.4419417   0.4419417), wk =   0.0058594
        k(   56) = (  -0.0441942  -0.3977476   0.3977476), wk =   0.0058594
        k(   57) = (   0.0000000  -0.3535534   0.3535534), wk =   0.0029297
        k(   58) = (   0.4419417   0.0000000   0.0000000), wk =   0.0014648
        k(   59) = (   0.4861359   0.0441942  -0.0441942), wk =   0.0058594
        k(   60) = (   0.5303301   0.0883883  -0.0883883), wk =   0.0058594
        k(   61) = (  -0.1325825  -0.5745243   0.5745243), wk =   0.0058594
        k(   62) = (  -0.0883883  -0.5303301   0.5303301), wk =   0.0058594
        k(   63) = (  -0.0441942  -0.4861359   0.4861359), wk =   0.0058594
        k(   64) = (   0.0000000  -0.4419417   0.4419417), wk =   0.0029297
        k(   65) = (   0.5303301   0.0000000   0.0000000), wk =   0.0014648
        k(   66) = (   0.5745243   0.0441942  -0.0441942), wk =   0.0058594
        k(   67) = (  -0.0883883  -0.6187184   0.6187184), wk =   0.0058594
        k(   68) = (  -0.0441942  -0.5745243   0.5745243), wk =   0.0058594
        k(   69) = (   0.0000000  -0.5303301   0.5303301), wk =   0.0029297
        k(   70) = (   0.6187184   0.0000000   0.0000000), wk =   0.0014648
        k(   71) = (  -0.0441942  -0.6629126   0.6629126), wk =   0.0058594
        k(   72) = (   0.0000000  -0.6187184   0.6187184), wk =   0.0029297
        k(   73) = (  -0.7071068   0.0000000   0.0000000), wk =   0.0007324
        k(   74) = (   0.1767767   0.0883883   0.0000000), wk =   0.0058594
        k(   75) = (   0.2209709   0.1325825  -0.0441942), wk =   0.0117188
        k(   76) = (   0.2651650   0.1767767  -0.0883883), wk =   0.0117188
        k(   77) = (   0.3093592   0.2209709  -0.1325825), wk =   0.0117188
        k(   78) = (   0.3535534   0.2651650  -0.1767767), wk =   0.0117188
        k(   79) = (  -0.3093592  -0.3977476   0.4861359), wk =   0.0117188
        k(   80) = (  -0.2651650  -0.3535534   0.4419417), wk =   0.0058594
        k(   81) = (   0.2651650   0.0883883   0.0000000), wk =   0.0058594
        k(   82) = (   0.3093592   0.1325825  -0.0441942), wk =   0.0117188
        k(   83) = (   0.3535534   0.1767767  -0.0883883), wk =   0.0117188
        k(   84) = (   0.3977476   0.2209709  -0.1325825), wk =   0.0117188
        k(   85) = (  -0.2651650  -0.4419417   0.5303301), wk =   0.0117188
        k(   86) = (  -0.2209709  -0.3977476   0.4861359), wk =   0.0117188
        k(   87) = (  -0.1767767  -0.3535534   0.4419417), wk =   0.0117188
        k(   88) = (  -0.1325825  -0.3093592   0.3977476), wk =   0.0117188
        k(   89) = (  -0.0883883  -0.2651650   0.3535534), wk =   0.0117188
        k(   90) = (  -0.0441942  -0.2209709   0.3093592), wk =   0.0117188
        k(   91) = (   0.0000000  -0.1767767   0.2651650), wk =   0.0058594
        k(   92) = (   0.3535534   0.0883883   0.0000000), wk =   0.0058594
        k(   93) = (   0.3977476   0.1325825  -0.0441942), wk =   0.0117188
        k(   94) = (   0.4419417   0.1767767  -0.0883883), wk =   0.0117188
        k(   95) = (  -0.2209709  -0.4861359   0.5745243), wk =   0.0117188
        k(   96) = (  -0.1767767  -0.4419417   0.5303301), wk =   0.0117188
        k(   97) = (  -0.1325825  -0.3977476   0.4861359), wk =   0.0117188
        k(   98) = (  -0.0883883  -0.3535534   0.4419417), wk =   0.0117188
        k(   99) = (  -0.0441942  -0.3093592   0.3977476), wk =   0.0117188
        k(  100) = (   0.0000000  -0.2651650   0.3535534), wk =   0.0058594
        k(  101) = (   0.4419417   0.0883883   0.0000000), wk =   0.0058594
        k(  102) = (   0.4861359   0.1325825  -0.0441942), wk =   0.0117188
        k(  103) = (  -0.1767767  -0.5303301   0.6187184), wk =   0.0117188
        k(  104) = (  -0.1325825  -0.4861359   0.5745243), wk =   0.0117188
        k(  105) = (  -0.0883883  -0.4419417   0.5303301), wk =   0.0117188
        k(  106) = (  -0.0441942  -0.3977476   0.4861359), wk =   0.0117188
        k(  107) = (   0.0000000  -0.3535534   0.4419417), wk =   0.0058594
        k(  108) = (   0.5303301   0.0883883   0.0000000), wk =   0.0058594
        k(  109) = (  -0.1325825  -0.5745243   0.6629126), wk =   0.0117188
        k(  110) = (  -0.0883883  -0.5303301   0.6187184), wk =   0.0117188
        k(  111) = (  -0.0441942  -0.4861359   0.5745243), wk =   0.0117188
        k(  112) = (   0.0000000  -0.4419417   0.5303301), wk =   0.0058594
        k(  113) = (  -0.0883883  -0.6187184   0.7071068), wk =   0.0058594
        k(  114) = (  -0.0441942  -0.5745243   0.6629126), wk =   0.0117188
        k(  115) = (  -0.0000000  -0.5303301   0.6187184), wk =   0.0058594
        k(  116) = (  -0.7071068   0.0883883   0.0000000), wk =   0.0029297
        k(  117) = (   0.3535534   0.1767767   0.0000000), wk =   0.0058594
        k(  118) = (   0.3977476   0.2209709  -0.0441942), wk =   0.0117188
        k(  119) = (  -0.2651650  -0.4419417   0.6187184), wk =   0.0117188
        k(  120) = (  -0.2209709  -0.3977476   0.5745243), wk =   0.0117188
        k(  121) = (  -0.1767767  -0.3535534   0.5303301), wk =   0.0058594
        k(  122) = (   0.4419417   0.1767767   0.0000000), wk =   0.0058594
        k(  123) = (  -0.2209709  -0.4861359   0.6629126), wk =   0.0117188
        k(  124) = (  -0.1767767  -0.4419417   0.6187184), wk =   0.0117188
        k(  125) = (  -0.1325825  -0.3977476   0.5745243), wk =   0.0117188
        k(  126) = (  -0.0883883  -0.3535534   0.5303301), wk =   0.0117188
        k(  127) = (  -0.0441942  -0.3093592   0.4861359), wk =   0.0117188
        k(  128) = (   0.0000000  -0.2651650   0.4419417), wk =   0.0058594
        k(  129) = (  -0.1767767  -0.5303301   0.7071068), wk =   0.0058594
        k(  130) = (  -0.1325825  -0.4861359   0.6629126), wk =   0.0117188
        k(  131) = (  -0.0883883  -0.4419417   0.6187184), wk =   0.0117188
        k(  132) = (  -0.0441942  -0.3977476   0.5745243), wk =   0.0117188
        k(  133) = (   0.0000000  -0.3535534   0.5303301), wk =   0.0058594
        k(  134) = (  -0.0883883  -0.5303301   0.7071068), wk =   0.0058594
        k(  135) = (  -0.0441942  -0.4861359   0.6629126), wk =   0.0117188
        k(  136) = (   0.0000000  -0.4419417   0.6187184), wk =   0.0058594
        k(  137) = (  -0.7071068   0.1767767   0.0000000), wk =   0.0029297
        k(  138) = (  -0.1767767  -0.4419417   0.7071068), wk =   0.0058594
        k(  139) = (  -0.1325825  -0.3977476   0.6629126), wk =   0.0117188
        k(  140) = (  -0.0883883  -0.3535534   0.6187184), wk =   0.0058594
        k(  141) = (  -0.0883883  -0.4419417   0.7071068), wk =   0.0058594
        k(  142) = (  -0.0441942  -0.3977476   0.6629126), wk =   0.0117188
        k(  143) = (  -0.0000000  -0.3535534   0.6187184), wk =   0.0058594
        k(  144) = (  -0.7071068   0.2651650   0.0000000), wk =   0.0029297
        k(  145) = (  -0.7071068   0.3535534   0.0000000), wk =   0.0014648

                       cryst. coord.
        k(    1) = (   0.0000000   0.0000000   0.0000000), wk =   0.0002441
        k(    2) = (   0.0000000   0.0000000   0.0625000), wk =   0.0019531
        k(    3) = (   0.0000000   0.0000000   0.1250000), wk =   0.0019531
        k(    4) = (   0.0000000   0.0000000   0.1875000), wk =   0.0019531
        k(    5) = (   0.0000000   0.0000000   0.2500000), wk =   0.0019531
        k(    6) = (   0.0000000   0.0000000   0.3125000), wk =   0.0019531
        k(    7) = (   0.0000000   0.0000000   0.3750000), wk =   0.0019531
        k(    8) = (   0.0000000   0.0000000   0.4375000), wk =   0.0019531
        k(    9) = (   0.0000000   0.0000000  -0.5000000), wk =   0.0009766
        k(   10) = (   0.0000000   0.0625000   0.0625000), wk =   0.0014648
        k(   11) = (   0.0000000   0.0625000   0.1250000), wk =   0.0058594
        k(   12) = (   0.0000000   0.0625000   0.1875000), wk =   0.0058594
        k(   13) = (   0.0000000   0.0625000   0.2500000), wk =   0.0058594
        k(   14) = (   0.0000000   0.0625000   0.3125000), wk =   0.0058594
        k(   15) = (   0.0000000   0.0625000   0.3750000), wk =   0.0058594
        k(   16) = (   0.0000000   0.0625000   0.4375000), wk =   0.0058594
        k(   17) = (   0.0000000   0.0625000  -0.5000000), wk =   0.0058594
        k(   18) = (   0.0000000   0.0625000  -0.4375000), wk =   0.0058594
        k(   19) = (   0.0000000   0.0625000  -0.3750000), wk =   0.0058594
        k(   20) = (   0.0000000   0.0625000  -0.3125000), wk =   0.0058594
        k(   21) = (   0.0000000   0.0625000  -0.2500000), wk =   0.0058594
        k(   22) = (   0.0000000   0.0625000  -0.1875000), wk =   0.0058594
        k(   23) = (   0.0000000   0.0625000  -0.1250000), wk =   0.0058594
        k(   24) = (   0.0000000   0.0625000  -0.0625000), wk =   0.0029297
        k(   25) = (   0.0000000   0.1250000   0.1250000), wk =   0.0014648
        k(   26) = (   0.0000000   0.1250000   0.1875000), wk =   0.0058594
        k(   27) = (   0.0000000   0.1250000   0.2500000), wk =   0.0058594
        k(   28) = (   0.0000000   0.1250000   0.3125000), wk =   0.0058594
        k(   29) = (   0.0000000   0.1250000   0.3750000), wk =   0.0058594
        k(   30) = (   0.0000000   0.1250000   0.4375000), wk =   0.0058594
        k(   31) = (   0.0000000   0.1250000  -0.5000000), wk =   0.0058594
        k(   32) = (   0.0000000   0.1250000  -0.4375000), wk =   0.0058594
        k(   33) = (   0.0000000   0.1250000  -0.3750000), wk =   0.0058594
        k(   34) = (   0.0000000   0.1250000  -0.3125000), wk =   0.0058594
        k(   35) = (   0.0000000   0.1250000  -0.2500000), wk =   0.0058594
        k(   36) = (   0.0000000   0.1250000  -0.1875000), wk =   0.0058594
        k(   37) = (   0.0000000   0.1250000  -0.1250000), wk =   0.0029297
        k(   38) = (   0.0000000   0.1875000   0.1875000), wk =   0.0014648
        k(   39) = (   0.0000000   0.1875000   0.2500000), wk =   0.0058594
        k(   40) = (   0.0000000   0.1875000   0.3125000), wk =   0.0058594
        k(   41) = (   0.0000000   0.1875000   0.3750000), wk =   0.0058594
        k(   42) = (   0.0000000   0.1875000   0.4375000), wk =   0.0058594
        k(   43) = (   0.0000000   0.1875000  -0.5000000), wk =   0.0058594
        k(   44) = (   0.0000000   0.1875000  -0.4375000), wk =   0.0058594
        k(   45) = (   0.0000000   0.1875000  -0.3750000), wk =   0.0058594
        k(   46) = (   0.0000000   0.1875000  -0.3125000), wk =   0.0058594
        k(   47) = (   0.0000000   0.1875000  -0.2500000), wk =   0.0058594
        k(   48) = (   0.0000000   0.1875000  -0.1875000), wk =   0.0029297
        k(   49) = (   0.0000000   0.2500000   0.2500000), wk =   0.0014648
        k(   50) = (   0.0000000   0.2500000   0.3125000), wk =   0.0058594
        k(   51) = (   0.0000000   0.2500000   0.3750000), wk =   0.0058594
        k(   52) = (   0.0000000   0.2500000   0.4375000), wk =   0.0058594
        k(   53) = (   0.0000000   0.2500000  -0.5000000), wk =   0.0058594
        k(   54) = (   0.0000000   0.2500000  -0.4375000), wk =   0.0058594
        k(   55) = (   0.0000000   0.2500000  -0.3750000), wk =   0.0058594
        k(   56) = (   0.0000000   0.2500000  -0.3125000), wk =   0.0058594
        k(   57) = (   0.0000000   0.2500000  -0.2500000), wk =   0.0029297
        k(   58) = (   0.0000000   0.3125000   0.3125000), wk =   0.0014648
        k(   59) = (   0.0000000   0.3125000   0.3750000), wk =   0.0058594
        k(   60) = (   0.0000000   0.3125000   0.4375000), wk =   0.0058594
        k(   61) = (   0.0000000   0.3125000  -0.5000000), wk =   0.0058594
        k(   62) = (   0.0000000   0.3125000  -0.4375000), wk =   0.0058594
        k(   63) = (   0.0000000   0.3125000  -0.3750000), wk =   0.0058594
        k(   64) = (   0.0000000   0.3125000  -0.3125000), wk =   0.0029297
        k(   65) = (   0.0000000   0.3750000   0.3750000), wk =   0.0014648
        k(   66) = (   0.0000000   0.3750000   0.4375000), wk =   0.0058594
        k(   67) = (   0.0000000   0.3750000  -0.5000000), wk =   0.0058594
        k(   68) = (   0.0000000   0.3750000  -0.4375000), wk =   0.0058594
        k(   69) = (   0.0000000   0.3750000  -0.3750000), wk =   0.0029297
        k(   70) = (   0.0000000   0.4375000   0.4375000), wk =   0.0014648
        k(   71) = (   0.0000000   0.4375000  -0.5000000), wk =   0.0058594
        k(   72) = (   0.0000000   0.4375000  -0.4375000), wk =   0.0029297
        k(   73) = (   0.0000000  -0.5000000  -0.5000000), wk =   0.0007324
        k(   74) = (   0.0625000   0.1250000   0.1875000), wk =   0.0058594
        k(   75) = (   0.0625000   0.1250000   0.2500000), wk =   0.0117188
        k(   76) = (   0.0625000   0.1250000   0.3125000), wk =   0.0117188
        k(   77) = (   0.0625000   0.1250000   0.3750000), wk =   0.0117188
        k(   78) = (   0.0625000   0.1250000   0.4375000), wk =   0.0117188
        k(   79) = (   0.0625000   0.1250000  -0.5000000), wk =   0.0117188
        k(   80) = (   0.0625000   0.1250000  -0.4375000), wk =   0.0058594
        k(   81) = (   0.0625000   0.1875000   0.2500000), wk =   0.0058594
        k(   82) = (   0.0625000   0.1875000   0.3125000), wk =   0.0117188
        k(   83) = (   0.0625000   0.1875000   0.3750000), wk =   0.0117188
        k(   84) = (   0.0625000   0.1875000   0.4375000), wk =   0.0117188
        k(   85) = (   0.0625000   0.1875000  -0.5000000), wk =   0.0117188
        k(   86) = (   0.0625000   0.1875000  -0.4375000), wk =   0.0117188
        k(   87) = (   0.0625000   0.1875000  -0.3750000), wk =   0.0117188
        k(   88) = (   0.0625000   0.1875000  -0.3125000), wk =   0.0117188
        k(   89) = (   0.0625000   0.1875000  -0.2500000), wk =   0.0117188
        k(   90) = (   0.0625000   0.1875000  -0.1875000), wk =   0.0117188
        k(   91) = (   0.0625000   0.1875000  -0.1250000), wk =   0.0058594
        k(   92) = (   0.0625000   0.2500000   0.3125000), wk =   0.0058594
        k(   93) = (   0.0625000   0.2500000   0.3750000), wk =   0.0117188
        k(   94) = (   0.0625000   0.2500000   0.4375000), wk =   0.0117188
        k(   95) = (   0.0625000   0.2500000  -0.5000000), wk =   0.0117188
        k(   96) = (   0.0625000   0.2500000  -0.4375000), wk =   0.0117188
        k(   97) = (   0.0625000   0.2500000  -0.3750000), wk =   0.0117188
        k(   98) = (   0.0625000   0.2500000  -0.3125000), wk =   0.0117188
        k(   99) = (   0.0625000   0.2500000  -0.2500000), wk =   0.0117188
        k(  100) = (   0.0625000   0.2500000  -0.1875000), wk =   0.0058594
        k(  101) = (   0.0625000   0.3125000   0.3750000), wk =   0.0058594
        k(  102) = (   0.0625000   0.3125000   0.4375000), wk =   0.0117188
        k(  103) = (   0.0625000   0.3125000  -0.5000000), wk =   0.0117188
        k(  104) = (   0.0625000   0.3125000  -0.4375000), wk =   0.0117188
        k(  105) = (   0.0625000   0.3125000  -0.3750000), wk =   0.0117188
        k(  106) = (   0.0625000   0.3125000  -0.3125000), wk =   0.0117188
        k(  107) = (   0.0625000   0.3125000  -0.2500000), wk =   0.0058594
        k(  108) = (   0.0625000   0.3750000   0.4375000), wk =   0.0058594
        k(  109) = (   0.0625000   0.3750000  -0.5000000), wk =   0.0117188
        k(  110) = (   0.0625000   0.3750000  -0.4375000), wk =   0.0117188
        k(  111) = (   0.0625000   0.3750000  -0.3750000), wk =   0.0117188
        k(  112) = (   0.0625000   0.3750000  -0.3125000), wk =   0.0058594
        k(  113) = (   0.0625000   0.4375000  -0.5000000), wk =   0.0058594
        k(  114) = (   0.0625000   0.4375000  -0.4375000), wk =   0.0117188
        k(  115) = (   0.0625000   0.4375000  -0.3750000), wk =   0.0058594
        k(  116) = (   0.0625000  -0.5000000  -0.4375000), wk =   0.0029297
        k(  117) = (   0.1250000   0.2500000   0.3750000), wk =   0.0058594
        k(  118) = (   0.1250000   0.2500000   0.4375000), wk =   0.0117188
        k(  119) = (   0.1250000   0.2500000  -0.5000000), wk =   0.0117188
        k(  120) = (   0.1250000   0.2500000  -0.4375000), wk =   0.0117188
        k(  121) = (   0.1250000   0.2500000  -0.3750000), wk =   0.0058594
        k(  122) = (   0.1250000   0.3125000   0.4375000), wk =   0.0058594
        k(  123) = (   0.1250000   0.3125000  -0.5000000), wk =   0.0117188
        k(  124) = (   0.1250000   0.3125000  -0.4375000), wk =   0.0117188
        k(  125) = (   0.1250000   0.3125000  -0.3750000), wk =   0.0117188
        k(  126) = (   0.1250000   0.3125000  -0.3125000), wk =   0.0117188
        k(  127) = (   0.1250000   0.3125000  -0.2500000), wk =   0.0117188
        k(  128) = (   0.1250000   0.3125000  -0.1875000), wk =   0.0058594
        k(  129) = (   0.1250000   0.3750000  -0.5000000), wk =   0.0058594
        k(  130) = (   0.1250000   0.3750000  -0.4375000), wk =   0.0117188
        k(  131) = (   0.1250000   0.3750000  -0.3750000), wk =   0.0117188
        k(  132) = (   0.1250000   0.3750000  -0.3125000), wk =   0.0117188
        k(  133) = (   0.1250000   0.3750000  -0.2500000), wk =   0.0058594
        k(  134) = (   0.1250000   0.4375000  -0.4375000), wk =   0.0058594
        k(  135) = (   0.1250000   0.4375000  -0.3750000), wk =   0.0117188
        k(  136) = (   0.1250000   0.4375000  -0.3125000), wk =   0.0058594
        k(  137) = (   0.1250000  -0.5000000  -0.3750000), wk =   0.0029297
        k(  138) = (   0.1875000   0.3750000  -0.4375000), wk =   0.0058594
        k(  139) = (   0.1875000   0.3750000  -0.3750000), wk =   0.0117188
        k(  140) = (   0.1875000   0.3750000  -0.3125000), wk =   0.0058594
        k(  141) = (   0.1875000   0.4375000  -0.3750000), wk =   0.0058594
        k(  142) = (   0.1875000   0.4375000  -0.3125000), wk =   0.0117188
        k(  143) = (   0.1875000   0.4375000  -0.2500000), wk =   0.0058594
        k(  144) = (   0.1875000  -0.5000000  -0.3125000), wk =   0.0029297
        k(  145) = (   0.2500000  -0.5000000  -0.2500000), wk =   0.0014648

     Dense  grid:    23973 G-vectors     FFT dimensions: (  45,  45,  45)

     Largest allocated arrays     est. size (Mb)     dimensions
        Kohn-Sham Wavefunctions         0.21 Mb     (     382,   36)
        NL pseudopotentials             0.10 Mb     (     191,   36)
        Each V/rho on FFT grid          0.09 Mb     (    6075)
        Each G-vector array             0.01 Mb     (    1498)
        G-vector shells                 0.00 Mb     (     257)
     Largest temporary arrays     est. size (Mb)     dimensions
        Auxiliary wavefunctions         0.84 Mb     (     382,  144)
        Each subspace H/S matrix        0.32 Mb     (     144,  144)
        Each <psi_i|beta_j> matrix      0.04 Mb     (      36,   2,   36)
        Arrays for rho mixing           0.74 Mb     (    6075,    8)

     Check: negative/imaginary core charge=   -0.000019    0.000000

     Initial potential from superposition of free atoms

     starting charge   27.99723, renormalised to   28.00000
     Starting wfc are   36 randomized atomic wfcs
     Checking if some PAW data can be deallocated... 

     total cpu time spent up to now is        7.4 secs

     Self-consistent Calculation

     iteration #  1     ecut=    50.00 Ry     beta=0.70
     Davidson diagonalization with overlap
     ethr =  1.00E-02,  avg # of iterations =  4.0

     Threshold (ethr) on eigenvalues was too large:
     Diagonalizing with lowered threshold

     Davidson diagonalization with overlap
     ethr =  4.89E-05,  avg # of iterations =  4.2

     total cpu time spent up to now is       62.8 secs

     total energy              =    -884.12402089 Ry
     Harris-Foulkes estimate   =    -884.12830564 Ry
     estimated scf accuracy    <       0.02327918 Ry

     iteration #  2     ecut=    50.00 Ry     beta=0.70
     Davidson diagonalization with overlap
     ethr =  8.31E-05,  avg # of iterations =  1.0

     total cpu time spent up to now is       78.6 secs

     total energy              =    -884.12446438 Ry
     Harris-Foulkes estimate   =    -884.12480888 Ry
     estimated scf accuracy    <       0.00163551 Ry

     iteration #  3     ecut=    50.00 Ry     beta=0.70
     Davidson diagonalization with overlap
     ethr =  5.84E-06,  avg # of iterations =  2.6

     total cpu time spent up to now is       99.4 secs

     total energy              =    -884.12476914 Ry
     Harris-Foulkes estimate   =    -884.12489034 Ry
     estimated scf accuracy    <       0.00016265 Ry

     iteration #  4     ecut=    50.00 Ry     beta=0.70
     Davidson diagonalization with overlap
     ethr =  5.81E-07,  avg # of iterations =  3.0

     total cpu time spent up to now is      124.3 secs

     total energy              =    -884.12483751 Ry
     Harris-Foulkes estimate   =    -884.12483737 Ry
     estimated scf accuracy    <       0.00000800 Ry

     iteration #  5     ecut=    50.00 Ry     beta=0.70
     Davidson diagonalization with overlap
     ethr =  2.86E-08,  avg # of iterations =  3.0

     total cpu time spent up to now is      143.7 secs

     End of self-consistent calculation

          k = 0.0000 0.0000 0.0000 (  2975 PWs)   bands (ev):

   -14.0339 -14.0339 -14.0339 -14.0339 -14.0339 -14.0339 -13.9840 -13.9840
   -13.9840 -13.9840 -13.7376 -13.7376 -13.7376 -13.7376 -13.7376 -13.7376
   -13.7355 -13.7355 -13.7355 -13.7355  -2.5545  -2.5545   6.3295   6.3295
     7.6180   7.6180   7.6180   7.6180   7.6180   7.6180   9.6837   9.6837
     9.6837   9.6837   9.6837   9.6837

     occupation numbers 
     1.0000   1.0000   1.0000   1.0000   1.0000   1.0000   1.0000   1.0000
     1.0000   1.0000   1.0000   1.0000   1.0000   1.0000   1.0000   1.0000
     1.0000   1.0000   1.0000   1.0000   1.0000   1.0000   1.0000   1.0000
     0.0000   0.0000   0.0000   0.0000   0.0000   0.0000   0.0000   0.0000
     0.0000   0.0000   0.0000   0.0000

          k = 0.0442 0.0442-0.0442 (  2972 PWs)   bands (ev):

   -14.0364 -14.0364 -14.0364 -14.0364 -14.0330 -14.0330 -13.9805 -13.9805
   -13.9805 -13.9805 -13.7472 -13.7472 -13.7472 -13.7472 -13.7386 -13.7386
   -13.7266 -13.7266 -13.7266 -13.7266  -2.5198  -2.5198   5.9357   5.9357
     7.5455   7.5455   7.5455   7.5455   7.7989   7.7989   9.7787   9.7787
     9.7787   9.7787   9.8137   9.8137

     occupation numbers 
     1.0000   1.0000   1.0000   1.0000   1.0000   1.0000   1.0000   1.0000
     1.0000   1.0000   1.0000   1.0000   1.0000   1.0000   1.0000   1.0000
     1.0000   1.0000   1.0000   1.0000   1.0000   1.0000   1.0000   1.0000
     0.0290   0.0290   0.0290   0.0290   0.0000   0.0000   0.0000   0.0000
     0.0000   0.0000   0.0000   0.0000

          k = 0.0884 0.0884-0.0884 (  2981 PWs)   bands (ev):

   -14.0422 -14.0422 -14.0422 -14.0422 -14.0307 -14.0307 -13.9723 -13.9723
   -13.9723 -13.9723 -13.7576 -13.7576 -13.7576 -13.7576 -13.7414 -13.7414
   -13.7177 -13.7177 -13.7177 -13.7177  -2.4165  -2.4165   5.1755   5.1755
     7.3679   7.3679   7.3679   7.3679   7.9279   7.9279  10.0132  10.0132
    10.0132  10.0132  10.2477  10.2477

     occupation numbers 
     1.0000   1.0000   1.0000   1.0000   1.0000   1.0000   1.0000   1.0000
     1.0000   1.0000   1.0000   1.0000   1.0000   1.0000   1.0000   1.0000
     1.0000   1.0000   1.0000   1.0000   1.0000   1.0000   1.0000   1.0000
     1.0000   1.0000   1.0000   1.0000   0.0000   0.0000   0.0000   0.0000
     0.0000   0.0000   0.0000   0.0000

          k = 0.1326 0.1326-0.1326 (  2957 PWs)   bands (ev):

   -14.0485 -14.0485 -14.0485 -14.0485 -14.0271 -14.0271 -13.9624 -13.9624
   -13.9624 -13.9624 -13.7673 -13.7673 -13.7673 -13.7673 -13.7456 -13.7456
   -13.7102 -13.7102 -13.7102 -13.7102  -2.2475  -2.2475   4.3460   4.3460
     7.1531   7.1531   7.1531   7.1531   7.8645   7.8645  10.2888  10.2888
    10.2888  10.2888  10.9292  10.9292

     occupation numbers 
     1.0000   1.0000   1.0000   1.0000   1.0000   1.0000   1.0000   1.0000
     1.0000   1.0000   1.0000   1.0000   1.0000   1.0000   1.0000   1.0000
     1.0000   1.0000   1.0000   1.0000   1.0000   1.0000   1.0000   1.0000
     1.0000   1.0000   1.0000   1.0000   0.0000   0.0000   0.0000   0.0000
     0.0000   0.0000   0.0000   0.0000

          k = 0.1768 0.1768-0.1768 (  2971 PWs)   bands (ev):

   -14.0539 -14.0539 -14.0539 -14.0539 -14.0228 -14.0228 -13.9530 -13.9530
   -13.9530 -13.9530 -13.7756 -13.7756 -13.7756 -13.7756 -13.7506 -13.7506
   -13.7042 -13.7042 -13.7042 -13.7042  -2.0191  -2.0191   3.5344   3.5344
     6.9464   6.9464   6.9464   6.9464   7.7246   7.7246  10.5194  10.5194
    10.5194  10.5194  11.7389  11.7389

     occupation numbers 
     1.0000   1.0000   1.0000   1.0000   1.0000   1.0000   1.0000   1.0000
     1.0000   1.0000   1.0000   1.0000   1.0000   1.0000   1.0000   1.0000
     1.0000   1.0000   1.0000   1.0000   1.0000   1.0000   1.0000   1.0000
     1.0000   1.0000   1.0000   1.0000   0.0000   0.0000   0.0000   0.0000
     0.0000   0.0000   0.0000   0.0000

          k = 0.2210 0.2210-0.2210 (  2980 PWs)   bands (ev):

   -14.0581 -14.0581 -14.0581 -14.0581 -14.0183 -14.0183 -13.9453 -13.9453
   -13.9453 -13.9453 -13.7819 -13.7819 -13.7819 -13.7819 -13.7558 -13.7558
   -13.6998 -13.6998 -13.6998 -13.6998  -1.7444  -1.7444   2.7864   2.7864
     6.7716   6.7716   6.7716   6.7716   7.5826   7.5826  10.6589  10.6589
    10.6589  10.6589  12.6043  12.6043

     occupation numbers 
     1.0000   1.0000   1.0000   1.0000   1.0000   1.0000   1.0000   1.0000
     1.0000   1.0000   1.0000   1.0000   1.0000   1.0000   1.0000   1.0000
     1.0000   1.0000   1.0000   1.0000   1.0000   1.0000   1.0000   1.0000
     1.0000   1.0000   1.0000   1.0000   0.0000   0.0000   0.0000   0.0000
     0.0000   0.0000   0.0000   0.0000

          k = 0.2652 0.2652-0.2652 (  2980 PWs)   bands (ev):

   -14.0608 -14.0608 -14.0608 -14.0608 -14.0144 -14.0144 -13.9399 -13.9399
   -13.9399 -13.9399 -13.7862 -13.7862 -13.7862 -13.7862 -13.7603 -13.7603
   -13.6969 -13.6969 -13.6969 -13.6969  -1.4515  -1.4515   2.1466   2.1466
     6.6408   6.6408   6.6408   6.6408   7.4698   7.4698  10.7155  10.7155
    10.7155  10.7155  13.2759  13.2759

     occupation numbers 
     1.0000   1.0000   1.0000   1.0000   1.0000   1.0000   1.0000   1.0000
     1.0000   1.0000   1.0000   1.0000   1.0000   1.0000   1.0000   1.0000
     1.0000   1.0000   1.0000   1.0000   1.0000   1.0000   1.0000   1.0000
     1.0000   1.0000   1.0000   1.0000   1.0000   1.0000   0.0000   0.0000
     0.0000   0.0000   0.0000   0.0000

          k = 0.3094 0.3094-0.3094 (  2983 PWs)   bands (ev):

   -14.0624 -14.0624 -14.0624 -14.0624 -14.0118 -14.0118 -13.9369 -13.9369
   -13.9369 -13.9369 -13.7884 -13.7884 -13.7884 -13.7884 -13.7634 -13.7634
   -13.6952 -13.6952 -13.6952 -13.6952  -1.2003  -1.2003   1.6841   1.6841
     6.5604   6.5604   6.5604   6.5604   7.3988   7.3988  10.7276  10.7276
    10.7276  10.7276  13.3081  13.3081

     occupation numbers 
     1.0000   1.0000   1.0000   1.0000   1.0000   1.0000   1.0000   1.0000
     1.0000   1.0000   1.0000   1.0000   1.0000   1.0000   1.0000   1.0000
     1.0000   1.0000   1.0000   1.0000   1.0000   1.0000   1.0000   1.0000
     1.0000   1.0000   1.0000   1.0000   1.0000   1.0000   0.0000   0.0000
     0.0000   0.0000   0.0000   0.0000

          k =-0.3536-0.3536 0.3536 (  2998 PWs)   bands (ev):

   -14.0629 -14.0629 -14.0629 -14.0629 -14.0108 -14.0108 -13.9359 -13.9359
   -13.9359 -13.9359 -13.7891 -13.7891 -13.7891 -13.7891 -13.7645 -13.7645
   -13.6947 -13.6947 -13.6947 -13.6947  -1.0941  -1.0941   1.5070   1.5070
     6.5333   6.5333   6.5333   6.5333   7.3747   7.3747  10.7277  10.7277
    10.7277  10.7277  13.2836  13.2836

     occupation numbers 
     1.0000   1.0000   1.0000   1.0000   1.0000   1.0000   1.0000   1.0000
     1.0000   1.0000   1.0000   1.0000   1.0000   1.0000   1.0000   1.0000
     1.0000   1.0000   1.0000   1.0000   1.0000   1.0000   1.0000   1.0000
     1.0000   1.0000   1.0000   1.0000   1.0000   1.0000   0.0000   0.0000
     0.0000   0.0000   0.0000   0.0000

          k = 0.0884 0.0000 0.0000 (  2971 PWs)   bands (ev):

   -14.0359 -14.0359 -14.0357 -14.0357 -14.0357 -14.0357 -13.9815 -13.9815
   -13.9771 -13.9771 -13.7564 -13.7564 -13.7379 -13.7379 -13.7351 -13.7351
   -13.7351 -13.7351 -13.7223 -13.7223  -2.5082  -2.5082   5.8556   5.8556
     7.4126   7.4126   7.4126   7.4126   8.0728   8.0728   9.5392   9.5392
     9.9488   9.9488   9.9488   9.9488

     occupation numbers 
     1.0000   1.0000   1.0000   1.0000   1.0000   1.0000   1.0000   1.0000
     1.0000   1.0000   1.0000   1.0000   1.0000   1.0000   1.0000   1.0000
     1.0000   1.0000   1.0000   1.0000   1.0000   1.0000   1.0000   1.0000
     1.0000   1.0000   1.0000   1.0000   0.0000   0.0000   0.0000   0.0000
     0.0000   0.0000   0.0000   0.0000

          k = 0.1326 0.0442-0.0442 (  2982 PWs)   bands (ev):

   -14.0420 -14.0420 -14.0394 -14.0394 -14.0335 -14.0335 -13.9763 -13.9763
   -13.9686 -13.9686 -13.7677 -13.7677 -13.7473 -13.7473 -13.7352 -13.7352
   -13.7261 -13.7261 -13.7155 -13.7155  -2.4275  -2.4275   5.2920   5.2920
     7.2045   7.2045   7.2357   7.2357   8.3252   8.3252   9.5384   9.5384
    10.2323  10.2323  10.3065  10.3065

     occupation numbers 
     1.0000   1.0000   1.0000   1.0000   1.0000   1.0000   1.0000   1.0000
     1.0000   1.0000   1.0000   1.0000   1.0000   1.0000   1.0000   1.0000
     1.0000   1.0000   1.0000   1.0000   1.0000   1.0000   1.0000   1.0000
     1.0000   1.0000   1.0000   1.0000   0.0000   0.0000   0.0000   0.0000
     0.0000   0.0000   0.0000   0.0000

          k = 0.1768 0.0884-0.0884 (  2973 PWs)   bands (ev):

   -14.0492 -14.0492 -14.0452 -14.0452 -14.0294 -14.0294 -13.9678 -13.9678
   -13.9582 -13.9582 -13.7783 -13.7783 -13.7574 -13.7574 -13.7391 -13.7391
   -13.7174 -13.7174 -13.7080 -13.7080  -2.2800  -2.2800   4.5385   4.5385
     6.9821   6.9821   7.0181   7.0181   8.3435   8.3435   9.7655   9.7655
    10.5384  10.5384  10.8596  10.8596

     occupation numbers 
     1.0000   1.0000   1.0000   1.0000   1.0000   1.0000   1.0000   1.0000
     1.0000   1.0000   1.0000   1.0000   1.0000   1.0000   1.0000   1.0000
     1.0000   1.0000   1.0000   1.0000   1.0000   1.0000   1.0000   1.0000
     1.0000   1.0000   1.0000   1.0000   0.0000   0.0000   0.0000   0.0000
     0.0000   0.0000   0.0000   0.0000

          k = 0.2210 0.1326-0.1326 (  2967 PWs)   bands (ev):

   -14.0558 -14.0558 -14.0509 -14.0509 -14.0241 -14.0241 -13.9585 -13.9585
   -13.9481 -13.9481 -13.7872 -13.7872 -13.7666 -13.7666 -13.7451 -13.7451
   -13.7101 -13.7101 -13.7012 -13.7012  -2.0704  -2.0704   3.7504   3.7504
     6.7774   6.7774   6.7818   6.7818   8.2287   8.2287  10.0778  10.0778
    10.7860  10.7861  11.5057  11.5057

     occupation numbers 
     1.0000   1.0000   1.0000   1.0000   1.0000   1.0000   1.0000   1.0000
     1.0000   1.0000   1.0000   1.0000   1.0000   1.0000   1.0000   1.0000
     1.0000   1.0000   1.0000   1.0000   1.0000   1.0000   1.0000   1.0000
     1.0000   1.0000   1.0000   1.0000   0.0000   0.0000   0.0000   0.0000
     0.0000   0.0000   0.0000   0.0000

          k = 0.2652 0.1768-0.1768 (  2973 PWs)   bands (ev):

   -14.0610 -14.0610 -14.0557 -14.0557 -14.0181 -14.0181 -13.9500 -13.9500
   -13.9399 -13.9399 -13.7934 -13.7934 -13.7747 -13.7747 -13.7522 -13.7522
   -13.7041 -13.7041 -13.6959 -13.6959  -1.8091  -1.8091   2.9968   2.9968
     6.5520   6.5520   6.6226   6.6226   8.0833   8.0833  10.3383  10.3383
    10.9240  10.9240  12.1857  12.1857

     occupation numbers 
     1.0000   1.0000   1.0000   1.0000   1.0000   1.0000   1.0000   1.0000
     1.0000   1.0000   1.0000   1.0000   1.0000   1.0000   1.0000   1.0000
     1.0000   1.0000   1.0000   1.0000   1.0000   1.0000   1.0000   1.0000
     1.0000   1.0000   1.0000   1.0000   0.0000   0.0000   0.0000   0.0000
     0.0000   0.0000   0.0000   0.0000

          k = 0.3094 0.2210-0.2210 (  2980 PWs)   bands (ev):

   -14.0647 -14.0647 -14.0594 -14.0594 -14.0124 -14.0124 -13.9429 -13.9429
   -13.9347 -13.9347 -13.7964 -13.7964 -13.7814 -13.7814 -13.7592 -13.7592
   -13.6995 -13.6995 -13.6923 -13.6923  -1.5173  -1.5173   2.3265   2.3265
     6.3635   6.3635   6.5142   6.5142   7.9536   7.9536  10.4973  10.4973
    10.9553  10.9553  12.8572  12.8572

     occupation numbers 
     1.0000   1.0000   1.0000   1.0000   1.0000   1.0000   1.0000   1.0000
     1.0000   1.0000   1.0000   1.0000   1.0000   1.0000   1.0000   1.0000
     1.0000   1.0000   1.0000   1.0000   1.0000   1.0000   1.0000   1.0000
     1.0000   1.0000   1.0000   1.0000   0.0000   0.0000   0.0000   0.0000
     0.0000   0.0000   0.0000   0.0000

          k = 0.3536 0.2652-0.2652 (  2997 PWs)   bands (ev):

   -14.0667 -14.0667 -14.0620 -14.0620 -14.0079 -14.0079 -13.9375 -13.9375
   -13.9325 -13.9325 -13.7961 -13.7961 -13.7868 -13.7868 -13.7652 -13.7652
   -13.6961 -13.6961 -13.6903 -13.6903  -1.2420  -1.2420   1.8006   1.8006
     6.2229   6.2229   6.4612   6.4612   7.8591   7.8591  10.5841  10.5841
    10.9216  10.9216  13.2971  13.2971

     occupation numbers 
     1.0000   1.0000   1.0000   1.0000   1.0000   1.0000   1.0000   1.0000
     1.0000   1.0000   1.0000   1.0000   1.0000   1.0000   1.0000   1.0000
     1.0000   1.0000   1.0000   1.0000   1.0000   1.0000   1.0000   1.0000
     1.0000   1.0000   1.0000   1.0000   0.0000   0.0000   0.0000   0.0000
     0.0000   0.0000   0.0000   0.0000

          k =-0.3094-0.3977 0.3977 (  2980 PWs)   bands (ev):

   -14.0673 -14.0673 -14.0636 -14.0636 -14.0055 -14.0055 -13.9338 -13.9338
   -13.9331 -13.9331 -13.7932 -13.7932 -13.7909 -13.7909 -13.7691 -13.7691
   -13.6939 -13.6939 -13.6900 -13.6900  -1.0744  -1.0744   1.5179   1.5179
     6.1361   6.1361   6.4650   6.4650   7.8081   7.8081  10.6450  10.6450
    10.8636  10.8636  13.3948  13.3948

     occupation numbers 
     1.0000   1.0000   1.0000   1.0000   1.0000   1.0000   1.0000   1.0000
     1.0000   1.0000   1.0000   1.0000   1.0000   1.0000   1.0000   1.0000
     1.0000   1.0000   1.0000   1.0000   1.0000   1.0000   1.0000   1.0000
     1.0000   1.0000   1.0000   1.0000   0.0000   0.0000   0.0000   0.0000
     0.0000   0.0000   0.0000   0.0000

          k =-0.2652-0.3536 0.3536 (  2981 PWs)   bands (ev):

   -14.0665 -14.0665 -14.0642 -14.0642 -14.0056 -14.0056 -13.9357 -13.9357
   -13.9321 -13.9321 -13.7936 -13.7936 -13.7892 -13.7892 -13.7696 -13.7696
   -13.6927 -13.6927 -13.6914 -13.6914  -1.1113  -1.1113   1.5781   1.5781
     6.1068   6.1068   6.5245   6.5245   7.8037   7.8037  10.7049  10.7049
    10.8013  10.8013  13.4073  13.4073

     occupation numbers 
     1.0000   1.0000   1.0000   1.0000   1.0000   1.0000   1.0000   1.0000
     1.0000   1.0000   1.0000   1.0000   1.0000   1.0000   1.0000   1.0000
     1.0000   1.0000   1.0000   1.0000   1.0000   1.0000   1.0000   1.0000
     1.0000   1.0000   1.0000   1.0000   0.0000   0.0000   0.0000   0.0000
     0.0000   0.0000   0.0000   0.0000

          k =-0.2210-0.3094 0.3094 (  2983 PWs)   bands (ev):

   -14.0643 -14.0643 -14.0637 -14.0637 -14.0082 -14.0082 -13.9399 -13.9399
   -13.9328 -13.9328 -13.7943 -13.7943 -13.7853 -13.7853 -13.7660 -13.7660
   -13.6943 -13.6943 -13.6929 -13.6929  -1.3279  -1.3279   1.9558   1.9558
     6.1374   6.1374   6.6366   6.6366   7.8454   7.8454  10.7308  10.7308
    10.7609  10.7609  13.2876  13.2876

     occupation numbers 
     1.0000   1.0000   1.0000   1.0000   1.0000   1.0000   1.0000   1.0000
     1.0000   1.0000   1.0000   1.0000   1.0000   1.0000   1.0000   1.0000
     1.0000   1.0000   1.0000   1.0000   1.0000   1.0000   1.0000   1.0000
     1.0000   1.0000   1.0000   1.0000   0.0000   0.0000   0.0000   0.0000
     0.0000   0.0000   0.0000   0.0000

          k =-0.1768-0.2652 0.2652 (  2975 PWs)   bands (ev):

   -14.0619 -14.0619 -14.0607 -14.0607 -14.0129 -14.0129 -13.9455 -13.9455
   -13.9365 -13.9365 -13.7922 -13.7922 -13.7812 -13.7812 -13.7592 -13.7592
   -13.6989 -13.6989 -13.6944 -13.6944  -1.6164  -1.6164   2.5385   2.5385
     6.2291   6.2291   6.7956   6.7956   7.9287   7.9287  10.6276  10.6276
    10.7787  10.7787  12.7096  12.7096

     occupation numbers 
     1.0000   1.0000   1.0000   1.0000   1.0000   1.0000   1.0000   1.0000
     1.0000   1.0000   1.0000   1.0000   1.0000   1.0000   1.0000   1.0000
     1.0000   1.0000   1.0000   1.0000   1.0000   1.0000   1.0000   1.0000
     1.0000   1.0000   1.0000   1.0000   0.0000   0.0000   0.0000   0.0000
     0.0000   0.0000   0.0000   0.0000

          k =-0.1326-0.2210 0.2210 (  2974 PWs)   bands (ev):

   -14.0586 -14.0586 -14.0558 -14.0558 -14.0187 -14.0187 -13.9527 -13.9527
   -13.9434 -13.9434 -13.7871 -13.7871 -13.7758 -13.7758 -13.7511 -13.7511
   -13.7050 -13.7050 -13.6976 -13.6976  -1.9015  -1.9015   3.2411   3.2411
     6.3826   6.3826   6.9916   6.9916   8.0414   8.0414  10.4604  10.4604
    10.6911  10.6911  11.9783  11.9783

     occupation numbers 
     1.0000   1.0000   1.0000   1.0000   1.0000   1.0000   1.0000   1.0000
     1.0000   1.0000   1.0000   1.0000   1.0000   1.0000   1.0000   1.0000
     1.0000   1.0000   1.0000   1.0000   1.0000   1.0000   1.0000   1.0000
     1.0000   1.0000   1.0000   1.0000   0.0000   0.0000   0.0000   0.0000
     0.0000   0.0000   0.0000   0.0000

          k =-0.0884-0.1768 0.1768 (  2973 PWs)   bands (ev):

   -14.0538 -14.0538 -14.0498 -14.0498 -14.0246 -14.0246 -13.9611 -13.9611
   -13.9528 -13.9528 -13.7793 -13.7793 -13.7689 -13.7689 -13.7431 -13.7431
   -13.7126 -13.7126 -13.7026 -13.7026  -2.1471  -2.1471   4.0088   4.0088
     6.5976   6.5976   7.2071   7.2071   8.1544   8.1544  10.2246  10.2246
    10.4358  10.4358  11.3224  11.3224

     occupation numbers 
     1.0000   1.0000   1.0000   1.0000   1.0000   1.0000   1.0000   1.0000
     1.0000   1.0000   1.0000   1.0000   1.0000   1.0000   1.0000   1.0000
     1.0000   1.0000   1.0000   1.0000   1.0000   1.0000   1.0000   1.0000
     1.0000   1.0000   1.0000   1.0000   0.0000   0.0000   0.0000   0.0000
     0.0000   0.0000   0.0000   0.0000

          k =-0.0442-0.1326 0.1326 (  2979 PWs)   bands (ev):

   -14.0477 -14.0477 -14.0431 -14.0431 -14.0296 -14.0296 -13.9699 -13.9699
   -13.9634 -13.9634 -13.7694 -13.7694 -13.7606 -13.7606 -13.7361 -13.7361
   -13.7215 -13.7215 -13.7092 -13.7092  -2.3366  -2.3366   4.7879   4.7879
     6.8733   6.8733   7.4094   7.4094   8.1981   8.1981   9.9703   9.9703
    10.0796  10.0796  10.7494  10.7494

     occupation numbers 
     1.0000   1.0000   1.0000   1.0000   1.0000   1.0000   1.0000   1.0000
     1.0000   1.0000   1.0000   1.0000   1.0000   1.0000   1.0000   1.0000
     1.0000   1.0000   1.0000   1.0000   1.0000   1.0000   1.0000   1.0000
     1.0000   1.0000   1.0000   1.0000   0.0000   0.0000   0.0000   0.0000
     0.0000   0.0000   0.0000   0.0000

          k = 0.0000-0.0884 0.0884 (  3004 PWs)   bands (ev):

   -14.0413 -14.0413 -14.0376 -14.0376 -14.0328 -14.0328 -13.9774 -13.9774
   -13.9736 -13.9736 -13.7584 -13.7584 -13.7517 -13.7517 -13.7326 -13.7326
   -13.7296 -13.7296 -13.7173 -13.7173  -2.4622  -2.4622   5.4907   5.4907
     7.2085   7.2085   7.5429   7.5429   8.0587   8.0587   9.7912   9.7912
     9.8314   9.8314  10.2261  10.2261

     occupation numbers 
     1.0000   1.0000   1.0000   1.0000   1.0000   1.0000   1.0000   1.0000
     1.0000   1.0000   1.0000   1.0000   1.0000   1.0000   1.0000   1.0000
     1.0000   1.0000   1.0000   1.0000   1.0000   1.0000   1.0000   1.0000
     1.0000   1.0000   0.7947   0.7947   0.0000   0.0000   0.0000   0.0000
     0.0000   0.0000   0.0000   0.0000

          k = 0.1768 0.0000 0.0000 (  2970 PWs)   bands (ev):

   -14.0408 -14.0408 -14.0408 -14.0408 -14.0389 -14.0389 -13.9743 -13.9743
   -13.9598 -13.9598 -13.7810 -13.7810 -13.7448 -13.7448 -13.7281 -13.7281
   -13.7281 -13.7281 -13.7143 -13.7143  -2.3695  -2.3695   5.0422   5.0422
     6.9819   6.9819   6.9819   6.9819   8.7941   8.7941   9.2191   9.2191
    10.5568  10.5568  10.5568  10.5568

     occupation numbers 
     1.0000   1.0000   1.0000   1.0000   1.0000   1.0000   1.0000   1.0000
     1.0000   1.0000   1.0000   1.0000   1.0000   1.0000   1.0000   1.0000
     1.0000   1.0000   1.0000   1.0000   1.0000   1.0000   1.0000   1.0000
     1.0000   1.0000   1.0000   1.0000   0.0000   0.0000   0.0000   0.0000
     0.0000   0.0000   0.0000   0.0000

          k = 0.2210 0.0442-0.0442 (  2960 PWs)   bands (ev):

   -14.0483 -14.0483 -14.0451 -14.0451 -14.0347 -14.0347 -13.9676 -13.9676
   -13.9487 -13.9487 -13.7938 -13.7938 -13.7526 -13.7526 -13.7284 -13.7284
   -13.7210 -13.7210 -13.7090 -13.7090  -2.2438  -2.2438   4.4991   4.4991
     6.7385   6.7385   6.7545   6.7545   8.9771   8.9771   9.2139   9.2139
    10.9038  10.9038  10.9861  10.9861

     occupation numbers 
     1.0000   1.0000   1.0000   1.0000   1.0000   1.0000   1.0000   1.0000
     1.0000   1.0000   1.0000   1.0000   1.0000   1.0000   1.0000   1.0000
     1.0000   1.0000   1.0000   1.0000   1.0000   1.0000   1.0000   1.0000
     1.0000   1.0000   1.0000   1.0000   0.0000   0.0000   0.0000   0.0000
     0.0000   0.0000   0.0000   0.0000

          k = 0.2652 0.0884-0.0884 (  2968 PWs)   bands (ev):

   -14.0566 -14.0566 -14.0504 -14.0504 -14.0276 -14.0276 -13.9589 -13.9589
   -13.9377 -13.9377 -13.8047 -13.8047 -13.7623 -13.7623 -13.7351 -13.7351
   -13.7130 -13.7130 -13.7009 -13.7009  -2.0541  -2.0541   3.8232   3.8232
     6.4578   6.4578   6.5552   6.5552   8.9038   8.9038   9.5074   9.5074
    11.1932  11.1932  11.4225  11.4225

     occupation numbers 
     1.0000   1.0000   1.0000   1.0000   1.0000   1.0000   1.0000   1.0000
     1.0000   1.0000   1.0000   1.0000   1.0000   1.0000   1.0000   1.0000
     1.0000   1.0000   1.0000   1.0000   1.0000   1.0000   1.0000   1.0000
     1.0000   1.0000   1.0000   1.0000   0.0000   0.0000   0.0000   0.0000
     0.0000   0.0000   0.0000   0.0000

          k = 0.3094 0.1326-0.1326 (  2975 PWs)   bands (ev):

   -14.0639 -14.0639 -14.0554 -14.0554 -14.0190 -14.0190 -13.9498 -13.9498
   -13.9286 -13.9286 -13.8126 -13.8126 -13.7718 -13.7718 -13.7446 -13.7446
   -13.7059 -13.7059 -13.6932 -13.6932  -1.8082  -1.8082   3.1215   3.1215
     6.1743   6.1743   6.4017   6.4017   8.7620   8.7620   9.8914   9.8914
    11.3620  11.3620  11.7463  11.7463

     occupation numbers 
     1.0000   1.0000   1.0000   1.0000   1.0000   1.0000   1.0000   1.0000
     1.0000   1.0000   1.0000   1.0000   1.0000   1.0000   1.0000   1.0000
     1.0000   1.0000   1.0000   1.0000   1.0000   1.0000   1.0000   1.0000
     1.0000   1.0000   1.0000   1.0000   0.0000   0.0000   0.0000   0.0000
     0.0000   0.0000   0.0000   0.0000

          k = 0.3536 0.1768-0.1768 (  2982 PWs)   bands (ev):

   -14.0697 -14.0697 -14.0597 -14.0597 -14.0099 -14.0099 -13.9413 -13.9413
   -13.9229 -13.9229 -13.8163 -13.8163 -13.7807 -13.7807 -13.7551 -13.7551
   -13.7000 -13.7000 -13.6870 -13.6870  -1.5225  -1.5225   2.4606   2.4606
     5.9230   5.9230   6.3036   6.3036   8.6188   8.6188  10.2167  10.2167
    11.3985  11.3985  12.1068  12.1068

     occupation numbers 
     1.0000   1.0000   1.0000   1.0000   1.0000   1.0000   1.0000   1.0000
     1.0000   1.0000   1.0000   1.0000   1.0000   1.0000   1.0000   1.0000
     1.0000   1.0000   1.0000   1.0000   1.0000   1.0000   1.0000   1.0000
     1.0000   1.0000   1.0000   1.0000   0.0000   0.0000   0.0000   0.0000
     0.0000   0.0000   0.0000   0.0000

          k = 0.3977 0.2210-0.2210 (  2991 PWs)   bands (ev):

   -14.0737 -14.0737 -14.0630 -14.0630 -14.0016 -14.0016 -13.9339 -13.9339
   -13.9214 -13.9214 -13.8152 -13.8152 -13.7888 -13.7888 -13.7653 -13.7653
   -13.6952 -13.6952 -13.6828 -13.6828  -1.2326  -1.2326   1.9027   1.9027
     5.7217   5.7217   6.2651   6.2651   8.5022   8.5022  10.4166  10.4166
    11.3426  11.3426  12.6266  12.6266

     occupation numbers 
     1.0000   1.0000   1.0000   1.0000   1.0000   1.0000   1.0000   1.0000
     1.0000   1.0000   1.0000   1.0000   1.0000   1.0000   1.0000   1.0000
     1.0000   1.0000   1.0000   1.0000   1.0000   1.0000   1.0000   1.0000
     1.0000   1.0000   1.0000   1.0000   0.0000   0.0000   0.0000   0.0000
     0.0000   0.0000   0.0000   0.0000

          k =-0.2652-0.4419 0.4419 (  2996 PWs)   bands (ev):

   -14.0757 -14.0757 -14.0654 -14.0654 -13.9955 -13.9955 -13.9278 -13.9278
   -13.9237 -13.9237 -13.8095 -13.8095 -13.7959 -13.7959 -13.7738 -13.7738
   -13.6917 -13.6917 -13.6810 -13.6810  -1.0144  -1.0144   1.5375   1.5375
     5.5795   5.5795   6.2872   6.2872   8.4253   8.4253  10.5363  10.5363
    11.2427  11.2427  13.1977  13.1977

     occupation numbers 
     1.0000   1.0000   1.0000   1.0000   1.0000   1.0000   1.0000   1.0000
     1.0000   1.0000   1.0000   1.0000   1.0000   1.0000   1.0000   1.0000
     1.0000   1.0000   1.0000   1.0000   1.0000   1.0000   1.0000   1.0000
     1.0000   1.0000   1.0000   1.0000   0.0000   0.0000   0.0000   0.0000
     0.0000   0.0000   0.0000   0.0000

          k =-0.2210-0.3977 0.3977 (  2985 PWs)   bands (ev):

   -14.0756 -14.0756 -14.0669 -14.0669 -13.9929 -13.9929 -13.9287 -13.9287
   -13.9236 -13.9236 -13.8015 -13.8015 -13.8002 -13.8002 -13.7794 -13.7794
   -13.6894 -13.6894 -13.6816 -13.6816  -0.9791  -0.9791   1.4823   1.4823
     5.5025   5.5025   6.3682   6.3682   8.3927   8.3927  10.6362  10.6362
    11.1271  11.1271  13.5057  13.5057

     occupation numbers 
     1.0000   1.0000   1.0000   1.0000   1.0000   1.0000   1.0000   1.0000
     1.0000   1.0000   1.0000   1.0000   1.0000   1.0000   1.0000   1.0000
     1.0000   1.0000   1.0000   1.0000   1.0000   1.0000   1.0000   1.0000
     1.0000   1.0000   1.0000   1.0000   0.0000   0.0000   0.0000   0.0000
     0.0000   0.0000   0.0000   0.0000

          k =-0.1768-0.3536 0.3536 (  2990 PWs)   bands (ev):

   -14.0734 -14.0734 -14.0672 -14.0672 -13.9945 -13.9945 -13.9351 -13.9351
   -13.9223 -13.9223 -13.8046 -13.8046 -13.7896 -13.7896 -13.7807 -13.7807
   -13.6885 -13.6885 -13.6847 -13.6847  -1.1509  -1.1509   1.7616   1.7616
     5.4961   5.4961   6.5036   6.5036   8.4033   8.4033  10.7380  10.7380
    10.9986  10.9986  13.2468  13.2468

     occupation numbers 
     1.0000   1.0000   1.0000   1.0000   1.0000   1.0000   1.0000   1.0000
     1.0000   1.0000   1.0000   1.0000   1.0000   1.0000   1.0000   1.0000
     1.0000   1.0000   1.0000   1.0000   1.0000   1.0000   1.0000   1.0000
     1.0000   1.0000   1.0000   1.0000   0.0000   0.0000   0.0000   0.0000
     0.0000   0.0000   0.0000   0.0000

          k =-0.1326-0.3094 0.3094 (  2988 PWs)   bands (ev):

   -14.0692 -14.0692 -14.0662 -14.0662 -14.0000 -14.0000 -13.9419 -13.9419
   -13.9247 -13.9247 -13.8042 -13.8042 -13.7845 -13.7845 -13.7720 -13.7720
   -13.6903 -13.6903 -13.6892 -13.6892  -1.4287  -1.4287   2.2683   2.2683
     5.5668   5.5668   6.6851   6.6851   8.4499   8.4499  10.8188  10.8188
    10.8390  10.8390  12.5920  12.5920

     occupation numbers 
     1.0000   1.0000   1.0000   1.0000   1.0000   1.0000   1.0000   1.0000
     1.0000   1.0000   1.0000   1.0000   1.0000   1.0000   1.0000   1.0000
     1.0000   1.0000   1.0000   1.0000   1.0000   1.0000   1.0000   1.0000
     1.0000   1.0000   1.0000   1.0000   0.0000   0.0000   0.0000   0.0000
     0.0000   0.0000   0.0000   0.0000

          k =-0.0884-0.2652 0.2652 (  2977 PWs)   bands (ev):

   -14.0636 -14.0636 -14.0632 -14.0632 -14.0081 -14.0081 -13.9489 -13.9489
   -13.9311 -13.9311 -13.7996 -13.7996 -13.7810 -13.7810 -13.7587 -13.7587
   -13.6982 -13.6982 -13.6916 -13.6916  -1.7208  -1.7208   2.8962   2.8962
     5.7240   5.7240   6.8990   6.8990   8.5138   8.5138  10.6245  10.6245
    10.7864  10.7864  11.9813  11.9813

     occupation numbers 
     1.0000   1.0000   1.0000   1.0000   1.0000   1.0000   1.0000   1.0000
     1.0000   1.0000   1.0000   1.0000   1.0000   1.0000   1.0000   1.0000
     1.0000   1.0000   1.0000   1.0000   1.0000   1.0000   1.0000   1.0000
     1.0000   1.0000   1.0000   1.0000   0.0000   0.0000   0.0000   0.0000
     0.0000   0.0000   0.0000   0.0000

          k =-0.0442-0.2210 0.2210 (  2980 PWs)   bands (ev):

   -14.0595 -14.0595 -14.0559 -14.0559 -14.0171 -14.0171 -13.9563 -13.9563
   -13.9408 -13.9408 -13.7916 -13.7916 -13.7757 -13.7757 -13.7460 -13.7460
   -13.7079 -13.7079 -13.6958 -13.6958  -1.9815  -1.9815   3.5721   3.5721
     5.9825   5.9825   7.1214   7.1214   8.5505   8.5505  10.3616  10.3616
    10.5271  10.5271  11.5965  11.5965

     occupation numbers 
     1.0000   1.0000   1.0000   1.0000   1.0000   1.0000   1.0000   1.0000
     1.0000   1.0000   1.0000   1.0000   1.0000   1.0000   1.0000   1.0000
     1.0000   1.0000   1.0000   1.0000   1.0000   1.0000   1.0000   1.0000
     1.0000   1.0000   1.0000   1.0000   0.0000   0.0000   0.0000   0.0000
     0.0000   0.0000   0.0000   0.0000

          k = 0.0000-0.1768 0.1768 (  2984 PWs)   bands (ev):

   -14.0539 -14.0539 -14.0485 -14.0485 -14.0249 -14.0249 -13.9638 -13.9638
   -13.9522 -13.9522 -13.7811 -13.7811 -13.7685 -13.7685 -13.7361 -13.7361
   -13.7181 -13.7181 -13.7017 -13.7017  -2.1901  -2.1901   4.2278   4.2278
     6.3632   6.3632   7.3115   7.3115   8.4695   8.4695  10.1113  10.1113
    10.2123  10.2123  11.2541  11.2541

     occupation numbers 
     1.0000   1.0000   1.0000   1.0000   1.0000   1.0000   1.0000   1.0000
     1.0000   1.0000   1.0000   1.0000   1.0000   1.0000   1.0000   1.0000
     1.0000   1.0000   1.0000   1.0000   1.0000   1.0000   1.0000   1.0000
     1.0000   1.0000   1.0000   1.0000   0.0000   0.0000   0.0000   0.0000
     0.0000   0.0000   0.0000   0.0000

          k = 0.2652 0.0000 0.0000 (  2970 PWs)   bands (ev):

   -14.0481 -14.0481 -14.0481 -14.0481 -14.0387 -14.0387 -13.9626 -13.9626
   -13.9365 -13.9365 -13.8094 -13.8094 -13.7560 -13.7560 -13.7180 -13.7180
   -13.7180 -13.7180 -13.7128 -13.7128  -2.1396  -2.1396   4.1869   4.1869
     6.5228   6.5228   6.5228   6.5228   8.8775   8.8775   9.3574   9.3574
    11.3056  11.3056  11.3056  11.3056

     occupation numbers 
     1.0000   1.0000   1.0000   1.0000   1.0000   1.0000   1.0000   1.0000
     1.0000   1.0000   1.0000   1.0000   1.0000   1.0000   1.0000   1.0000
     1.0000   1.0000   1.0000   1.0000   1.0000   1.0000   1.0000   1.0000
     1.0000   1.0000   1.0000   1.0000   0.0000   0.0000   0.0000   0.0000
     0.0000   0.0000   0.0000   0.0000

          k = 0.3094 0.0442-0.0442 (  2970 PWs)   bands (ev):

   -14.0554 -14.0554 -14.0525 -14.0525 -14.0329 -14.0329 -13.9545 -13.9545
   -13.9240 -13.9240 -13.8232 -13.8232 -13.7643 -13.7643 -13.7238 -13.7238
   -13.7114 -13.7114 -13.7044 -13.7044  -1.9701  -1.9701   3.6820   3.6820
     6.2632   6.2632   6.3197   6.3197   8.8624   8.8624   9.4597   9.4597
    11.6351  11.6351  11.6628  11.6628

     occupation numbers 
     1.0000   1.0000   1.0000   1.0000   1.0000   1.0000   1.0000   1.0000
     1.0000   1.0000   1.0000   1.0000   1.0000   1.0000   1.0000   1.0000
     1.0000   1.0000   1.0000   1.0000   1.0000   1.0000   1.0000   1.0000
     1.0000   1.0000   1.0000   1.0000   0.0000   0.0000   0.0000   0.0000
     0.0000   0.0000   0.0000   0.0000

          k = 0.3536 0.0884-0.0884 (  2971 PWs)   bands (ev):

   -14.0642 -14.0642 -14.0572 -14.0572 -14.0225 -14.0225 -13.9452 -13.9452
   -13.9132 -13.9132 -13.8339 -13.8339 -13.7741 -13.7741 -13.7355 -13.7355
   -13.7044 -13.7044 -13.6938 -13.6938  -1.7413  -1.7413   3.0903   3.0903
     5.9432   5.9432   6.1638   6.1638   8.9558   8.9558   9.6051   9.6051
    11.7063  11.7063  11.8981  11.8982

     occupation numbers 
     1.0000   1.0000   1.0000   1.0000   1.0000   1.0000   1.0000   1.0000
     1.0000   1.0000   1.0000   1.0000   1.0000   1.0000   1.0000   1.0000
     1.0000   1.0000   1.0000   1.0000   1.0000   1.0000   1.0000   1.0000
     1.0000   1.0000   1.0000   1.0000   0.0000   0.0000   0.0000   0.0000
     0.0000   0.0000   0.0000   0.0000

          k = 0.3977 0.1326-0.1326 (  2982 PWs)   bands (ev):

   -14.0722 -14.0722 -14.0615 -14.0615 -14.0104 -14.0104 -13.9357 -13.9357
   -13.9059 -13.9059 -13.8402 -13.8402 -13.7842 -13.7842 -13.7491 -13.7491
   -13.6981 -13.6981 -13.6847 -13.6847  -1.4653  -1.4653   2.4885   2.4885
     5.6244   5.6244   6.0652   6.0652   8.9253   8.9253   9.9890   9.9890
    11.7134  11.7135  11.9759  11.9759

     occupation numbers 
     1.0000   1.0000   1.0000   1.0000   1.0000   1.0000   1.0000   1.0000
     1.0000   1.0000   1.0000   1.0000   1.0000   1.0000   1.0000   1.0000
     1.0000   1.0000   1.0000   1.0000   1.0000   1.0000   1.0000   1.0000
     1.0000   1.0000   1.0000   1.0000   0.0000   0.0000   0.0000   0.0000
     0.0000   0.0000   0.0000   0.0000

          k = 0.4419 0.1768-0.1768 (  2990 PWs)   bands (ev):

   -14.0785 -14.0785 -14.0651 -14.0651 -13.9982 -13.9982 -13.9268 -13.9268
   -13.9036 -13.9036 -13.8407 -13.8407 -13.7941 -13.7941 -13.7628 -13.7628
   -13.6928 -13.6928 -13.6778 -13.6778  -1.1688  -1.1688   1.9405   1.9405
     5.3503   5.3503   6.0288   6.0288   8.8475   8.8475  10.4069  10.4069
    11.8922  11.8922  11.9258  11.9258

     occupation numbers 
     1.0000   1.0000   1.0000   1.0000   1.0000   1.0000   1.0000   1.0000
     1.0000   1.0000   1.0000   1.0000   1.0000   1.0000   1.0000   1.0000
     1.0000   1.0000   1.0000   1.0000   1.0000   1.0000   1.0000   1.0000
     1.0000   1.0000   1.0000   1.0000   0.0000   0.0000   0.0000   0.0000
     0.0000   0.0000   0.0000   0.0000

          k =-0.2210-0.4861 0.4861 (  2994 PWs)   bands (ev):

   -14.0825 -14.0825 -14.0679 -14.0679 -13.9880 -13.9880 -13.9188 -13.9188
   -13.9067 -13.9067 -13.8352 -13.8352 -13.8035 -13.8035 -13.7746 -13.7746
   -13.6887 -13.6887 -13.6734 -13.6734  -0.9122  -0.9122   1.5281   1.5281
     5.1417   5.1417   6.0559   6.0559   8.7888   8.7888  10.6655  10.6655
    11.8035  11.8035  12.3725  12.3725

     occupation numbers 
     1.0000   1.0000   1.0000   1.0000   1.0000   1.0000   1.0000   1.0000
     1.0000   1.0000   1.0000   1.0000   1.0000   1.0000   1.0000   1.0000
     1.0000   1.0000   1.0000   1.0000   1.0000   1.0000   1.0000   1.0000
     1.0000   1.0000   1.0000   1.0000   0.0000   0.0000   0.0000   0.0000
     0.0000   0.0000   0.0000   0.0000

          k =-0.1768-0.4419 0.4419 (  2999 PWs)   bands (ev):

   -14.0840 -14.0840 -14.0697 -14.0697 -13.9815 -13.9815 -13.9141 -13.9141
   -13.9126 -13.9126 -13.8246 -13.8246 -13.8113 -13.8113 -13.7830 -13.7830
   -13.6858 -13.6858 -13.6721 -13.6721  -0.8071  -0.8071   1.3735   1.3735
     5.0101   5.0101   6.1447   6.1447   8.7667   8.7667  10.8010  10.8010
    11.6465  11.6465  13.0097  13.0097

     occupation numbers 
     1.0000   1.0000   1.0000   1.0000   1.0000   1.0000   1.0000   1.0000
     1.0000   1.0000   1.0000   1.0000   1.0000   1.0000   1.0000   1.0000
     1.0000   1.0000   1.0000   1.0000   1.0000   1.0000   1.0000   1.0000
     1.0000   1.0000   1.0000   1.0000   0.0000   0.0000   0.0000   0.0000
     0.0000   0.0000   0.0000   0.0000

          k =-0.1326-0.3977 0.3977 (  2996 PWs)   bands (ev):

   -14.0828 -14.0828 -14.0705 -14.0705 -13.9802 -13.9802 -13.9241 -13.9241
   -13.9095 -13.9095 -13.8163 -13.8163 -13.8100 -13.8100 -13.7874 -13.7874
   -13.6845 -13.6845 -13.6740 -13.6740  -0.9265  -0.9265   1.5507   1.5507
     4.9654   4.9654   6.2903   6.2903   8.7805   8.7805  10.9104  10.9104
    11.4630  11.4630  13.1170  13.1170

     occupation numbers 
     1.0000   1.0000   1.0000   1.0000   1.0000   1.0000   1.0000   1.0000
     1.0000   1.0000   1.0000   1.0000   1.0000   1.0000   1.0000   1.0000
     1.0000   1.0000   1.0000   1.0000   1.0000   1.0000   1.0000   1.0000
     1.0000   1.0000   1.0000   1.0000   0.0000   0.0000   0.0000   0.0000
     0.0000   0.0000   0.0000   0.0000

          k =-0.0884-0.3536 0.3536 (  2993 PWs)   bands (ev):

   -14.0788 -14.0788 -14.0700 -14.0700 -13.9846 -13.9846 -13.9343 -13.9343
   -13.9112 -13.9112 -13.8167 -13.8167 -13.7930 -13.7930 -13.7880 -13.7880
   -13.6847 -13.6847 -13.6792 -13.6792  -1.1881  -1.1881   1.9696   1.9696
     5.0199   5.0199   6.4832   6.4832   8.8164   8.8164  11.0203  11.0203
    11.2379  11.2379  12.4475  12.4475

     occupation numbers 
     1.0000   1.0000   1.0000   1.0000   1.0000   1.0000   1.0000   1.0000
     1.0000   1.0000   1.0000   1.0000   1.0000   1.0000   1.0000   1.0000
     1.0000   1.0000   1.0000   1.0000   1.0000   1.0000   1.0000   1.0000
     1.0000   1.0000   1.0000   1.0000   0.0000   0.0000   0.0000   0.0000
     0.0000   0.0000   0.0000   0.0000

          k =-0.0442-0.3094 0.3094 (  2987 PWs)   bands (ev):

   -14.0725 -14.0725 -14.0679 -14.0679 -13.9940 -13.9940 -13.9429 -13.9429
   -13.9180 -13.9180 -13.8119 -13.8119 -13.7863 -13.7863 -13.7748 -13.7748
   -13.6873 -13.6873 -13.6867 -13.6867  -1.4837  -1.4837   2.5017   2.5017
     5.1921   5.1921   6.7073   6.7073   8.8410   8.8410  10.9550  10.9550
    11.0515  11.0515  11.8339  11.8339

     occupation numbers 
     1.0000   1.0000   1.0000   1.0000   1.0000   1.0000   1.0000   1.0000
     1.0000   1.0000   1.0000   1.0000   1.0000   1.0000   1.0000   1.0000
     1.0000   1.0000   1.0000   1.0000   1.0000   1.0000   1.0000   1.0000
     1.0000   1.0000   1.0000   1.0000   0.0000   0.0000   0.0000   0.0000
     0.0000   0.0000   0.0000   0.0000

          k = 0.0000-0.2652 0.2652 (  2970 PWs)   bands (ev):

   -14.0644 -14.0644 -14.0644 -14.0644 -14.0059 -14.0059 -13.9501 -13.9501
   -13.9286 -13.9286 -13.8029 -13.8029 -13.7819 -13.7819 -13.7583 -13.7583
   -13.6976 -13.6976 -13.6904 -13.6904  -1.7565  -1.7565   3.0571   3.0571
     5.5067   5.5067   6.9350   6.9350   8.7839   8.7839  10.6375  10.6375
    10.7949  10.7949  11.6434  11.6434

     occupation numbers 
     1.0000   1.0000   1.0000   1.0000   1.0000   1.0000   1.0000   1.0000
     1.0000   1.0000   1.0000   1.0000   1.0000   1.0000   1.0000   1.0000
     1.0000   1.0000   1.0000   1.0000   1.0000   1.0000   1.0000   1.0000
     1.0000   1.0000   1.0000   1.0000   0.0000   0.0000   0.0000   0.0000
     0.0000   0.0000   0.0000   0.0000

          k = 0.3536 0.0000 0.0000 (  2978 PWs)   bands (ev):

   -14.0562 -14.0562 -14.0562 -14.0562 -14.0339 -14.0339 -13.9468 -13.9468
   -13.9096 -13.9096 -13.8402 -13.8402 -13.7711 -13.7711 -13.7177 -13.7177
   -13.7065 -13.7065 -13.7065 -13.7065  -1.8204  -1.8204   3.3377   3.3377
     6.1101   6.1101   6.1101   6.1101   8.5916   8.5916   9.5259   9.5259
    12.1134  12.1134  12.1134  12.1134

     occupation numbers 
     1.0000   1.0000   1.0000   1.0000   1.0000   1.0000   1.0000   1.0000
     1.0000   1.0000   1.0000   1.0000   1.0000   1.0000   1.0000   1.0000
     1.0000   1.0000   1.0000   1.0000   1.0000   1.0000   1.0000   1.0000
     1.0000   1.0000   1.0000   1.0000   0.0000   0.0000   0.0000   0.0000
     0.0000   0.0000   0.0000   0.0000

          k = 0.3977 0.0442-0.0442 (  2981 PWs)   bands (ev):

   -14.0628 -14.0628 -14.0603 -14.0603 -14.0259 -14.0259 -13.9374 -13.9374
   -13.8964 -13.8964 -13.8544 -13.8544 -13.7806 -13.7806 -13.7280 -13.7280
   -13.7005 -13.7005 -13.6966 -13.6966  -1.6093  -1.6093   2.8713   2.8713
     5.8591   5.8591   5.9466   5.9466   8.6154   8.6154   9.4914   9.4914
    12.2541  12.2541  12.4553  12.4553

     occupation numbers 
     1.0000   1.0000   1.0000   1.0000   1.0000   1.0000   1.0000   1.0000
     1.0000   1.0000   1.0000   1.0000   1.0000   1.0000   1.0000   1.0000
     1.0000   1.0000   1.0000   1.0000   1.0000   1.0000   1.0000   1.0000
     1.0000   1.0000   1.0000   1.0000   0.0000   0.0000   0.0000   0.0000
     0.0000   0.0000   0.0000   0.0000

          k = 0.4419 0.0884-0.0884 (  2986 PWs)   bands (ev):

   -14.0715 -14.0715 -14.0642 -14.0642 -14.0126 -14.0126 -13.9273 -13.9273
   -13.8865 -13.8865 -13.8642 -13.8642 -13.7911 -13.7911 -13.7432 -13.7432
   -13.6946 -13.6946 -13.6858 -13.6858  -1.3456  -1.3456   2.3584   2.3584
     5.5217   5.5217   5.8406   5.8406   8.7614   8.7614   9.6255   9.6255
    12.1241  12.1241  12.6191  12.6191

     occupation numbers 
     1.0000   1.0000   1.0000   1.0000   1.0000   1.0000   1.0000   1.0000
     1.0000   1.0000   1.0000   1.0000   1.0000   1.0000   1.0000   1.0000
     1.0000   1.0000   1.0000   1.0000   1.0000   1.0000   1.0000   1.0000
     1.0000   1.0000   1.0000   1.0000   0.0000   0.0000   0.0000   0.0000
     0.0000   0.0000   0.0000   0.0000

          k = 0.4861 0.1326-0.1326 (  2990 PWs)   bands (ev):

   -14.0796 -14.0796 -14.0676 -14.0676 -13.9977 -13.9977 -13.9172 -13.9172
   -13.8830 -13.8830 -13.8668 -13.8668 -13.8020 -13.8020 -13.7596 -13.7596
   -13.6895 -13.6895 -13.6764 -13.6764  -1.0490  -1.0490   1.8582   1.8582
     5.1829   5.1829   5.7979   5.7979   8.8034   8.8034  10.0864  10.0864
    11.9988  11.9988  12.6092  12.6092

     occupation numbers 
     1.0000   1.0000   1.0000   1.0000   1.0000   1.0000   1.0000   1.0000
     1.0000   1.0000   1.0000   1.0000   1.0000   1.0000   1.0000   1.0000
     1.0000   1.0000   1.0000   1.0000   1.0000   1.0000   1.0000   1.0000
     1.0000   1.0000   1.0000   1.0000   0.0000   0.0000   0.0000   0.0000
     0.0000   0.0000   0.0000   0.0000

          k =-0.1768-0.5303 0.5303 (  3004 PWs)   bands (ev):

   -14.0857 -14.0857 -14.0703 -14.0703 -13.9840 -13.9840 -13.9078 -13.9078
   -13.8853 -13.8853 -13.8629 -13.8629 -13.8128 -13.8128 -13.7743 -13.7743
   -13.6855 -13.6855 -13.6696 -13.6696  -0.7652  -0.7652   1.4385   1.4385
     4.8999   4.8999   5.8204   5.8204   8.7993   8.7993  10.7075  10.7075
    11.9822  11.9822  12.4844  12.4844

     occupation numbers 
     1.0000   1.0000   1.0000   1.0000   1.0000   1.0000   1.0000   1.0000
     1.0000   1.0000   1.0000   1.0000   1.0000   1.0000   1.0000   1.0000
[...]

     occupation numbers 
     1.0000   1.0000   1.0000   1.0000   1.0000   1.0000   1.0000   1.0000
     1.0000   1.0000   1.0000   1.0000   1.0000   1.0000   1.0000   1.0000
     1.0000   1.0000   1.0000   1.0000   1.0000   1.0000   1.0000   1.0000
     1.0000   1.0000   1.0000   1.0000   0.0000   0.0000   0.0000   0.0000
     0.0000   0.0000   0.0000   0.0000

          k =-0.1326-0.3977 0.5745 (  2999 PWs)   bands (ev):

   -14.0896 -14.0896 -14.0770 -14.0770 -13.9636 -13.9636 -13.9023 -13.9023
   -13.8821 -13.8821 -13.8602 -13.8602 -13.8251 -13.8251 -13.7945 -13.7945
   -13.6778 -13.6778 -13.6653 -13.6653  -0.5086  -0.5086   1.1412   1.1412
     4.6654   4.6654   5.6276   5.6276   9.4768   9.4768  10.7215  10.7215
    12.0022  12.0022  12.6870  12.6870

     occupation numbers 
     1.0000   1.0000   1.0000   1.0000   1.0000   1.0000   1.0000   1.0000
     1.0000   1.0000   1.0000   1.0000   1.0000   1.0000   1.0000   1.0000
     1.0000   1.0000   1.0000   1.0000   1.0000   1.0000   1.0000   1.0000
     1.0000   1.0000   1.0000   1.0000   0.0000   0.0000   0.0000   0.0000
     0.0000   0.0000   0.0000   0.0000

          k =-0.0884-0.3536 0.5303 (  3004 PWs)   bands (ev):

   -14.0895 -14.0895 -14.0770 -14.0770 -13.9631 -13.9631 -13.9052 -13.9052
   -13.8834 -13.8834 -13.8561 -13.8561 -13.8245 -13.8245 -13.7955 -13.7955
   -13.6776 -13.6776 -13.6656 -13.6656  -0.5631  -0.5631   1.2104   1.2104
     4.6323   4.6323   5.6967   5.6967   9.5220   9.5220  10.7135  10.7135
    12.0660  12.0660  12.6481  12.6482

     occupation numbers 
     1.0000   1.0000   1.0000   1.0000   1.0000   1.0000   1.0000   1.0000
     1.0000   1.0000   1.0000   1.0000   1.0000   1.0000   1.0000   1.0000
     1.0000   1.0000   1.0000   1.0000   1.0000   1.0000   1.0000   1.0000
     1.0000   1.0000   1.0000   1.0000   0.0000   0.0000   0.0000   0.0000
     0.0000   0.0000   0.0000   0.0000

          k =-0.0442-0.3094 0.4861 (  3006 PWs)   bands (ev):

   -14.0862 -14.0862 -14.0759 -14.0759 -13.9701 -13.9701 -13.9156 -13.9156
   -13.8857 -13.8857 -13.8536 -13.8536 -13.8115 -13.8115 -13.7913 -13.7913
   -13.6787 -13.6787 -13.6697 -13.6697  -0.8067  -0.8067   1.5297   1.5297
     4.7037   4.7037   5.8394   5.8394   9.5738   9.5738  10.5973  10.5973
    11.4881  11.4881  12.8740  12.8740

     occupation numbers 
     1.0000   1.0000   1.0000   1.0000   1.0000   1.0000   1.0000   1.0000
     1.0000   1.0000   1.0000   1.0000   1.0000   1.0000   1.0000   1.0000
     1.0000   1.0000   1.0000   1.0000   1.0000   1.0000   1.0000   1.0000
     1.0000   1.0000   1.0000   1.0000   0.0000   0.0000   0.0000   0.0000
     0.0000   0.0000   0.0000   0.0000

          k = 0.0000-0.2652 0.4419 (  3011 PWs)   bands (ev):

   -14.0801 -14.0801 -14.0736 -14.0736 -13.9829 -13.9829 -13.9263 -13.9263
   -13.8933 -13.8933 -13.8476 -13.8476 -13.7965 -13.7965 -13.7810 -13.7810
   -13.6814 -13.6814 -13.6772 -13.6772  -1.1045  -1.1045   1.9489   1.9489
     4.8987   4.8987   6.0299   6.0299   9.5733   9.5733  10.2422  10.2422
    11.3118  11.3118  12.6478  12.6478

     occupation numbers 
     1.0000   1.0000   1.0000   1.0000   1.0000   1.0000   1.0000   1.0000
     1.0000   1.0000   1.0000   1.0000   1.0000   1.0000   1.0000   1.0000
     1.0000   1.0000   1.0000   1.0000   1.0000   1.0000   1.0000   1.0000
     1.0000   1.0000   1.0000   1.0000   0.0000   0.0000   0.0000   0.0000
     0.0000   0.0000   0.0000   0.0000

          k =-0.1768-0.5303 0.7071 (  2992 PWs)   bands (ev):

   -14.0784 -14.0784 -14.0765 -14.0765 -13.9863 -13.9863 -13.9067 -13.9067
   -13.8887 -13.8887 -13.8624 -13.8624 -13.8127 -13.8127 -13.7703 -13.7703
   -13.6787 -13.6787 -13.6776 -13.6776  -0.8133  -0.8133   1.5674   1.5674
     5.0694   5.0694   5.5005   5.5005   9.2193   9.2193   9.5746   9.5746
    11.9991  11.9991  13.6087  13.6087

     occupation numbers 
     1.0000   1.0000   1.0000   1.0000   1.0000   1.0000   1.0000   1.0000
     1.0000   1.0000   1.0000   1.0000   1.0000   1.0000   1.0000   1.0000
     1.0000   1.0000   1.0000   1.0000   1.0000   1.0000   1.0000   1.0000
     1.0000   1.0000   1.0000   1.0000   0.0000   0.0000   0.0000   0.0000
     0.0000   0.0000   0.0000   0.0000

          k =-0.1326-0.4861 0.6629 (  2998 PWs)   bands (ev):

   -14.0851 -14.0851 -14.0788 -14.0788 -13.9689 -13.9689 -13.8967 -13.8967
   -13.8933 -13.8933 -13.8562 -13.8562 -13.8250 -13.8250 -13.7875 -13.7875
   -13.6759 -13.6759 -13.6698 -13.6698  -0.5097  -0.5097   1.1834   1.1834
     4.8395   4.8395   5.3788   5.3788   9.3852   9.3852  10.0504  10.0504
    11.8243  11.8243  13.5621  13.5621

     occupation numbers 
     1.0000   1.0000   1.0000   1.0000   1.0000   1.0000   1.0000   1.0000
     1.0000   1.0000   1.0000   1.0000   1.0000   1.0000   1.0000   1.0000
     1.0000   1.0000   1.0000   1.0000   1.0000   1.0000   1.0000   1.0000
     1.0000   1.0000   1.0000   1.0000   0.0000   0.0000   0.0000   0.0000
     0.0000   0.0000   0.0000   0.0000

          k =-0.0884-0.4419 0.6187 (  3004 PWs)   bands (ev):

   -14.0901 -14.0901 -14.0798 -14.0798 -13.9563 -13.9563 -13.8929 -13.8929
   -13.8851 -13.8851 -13.8582 -13.8582 -13.8362 -13.8362 -13.7991 -13.7991
   -13.6745 -13.6745 -13.6643 -13.6643  -0.2719  -0.2719   0.9079   0.9079
     4.6414   4.6414   5.3693   5.3693   9.4402   9.4402  10.7784  10.7784
    11.7212  11.7212  12.9837  12.9837

     occupation numbers 
     1.0000   1.0000   1.0000   1.0000   1.0000   1.0000   1.0000   1.0000
     1.0000   1.0000   1.0000   1.0000   1.0000   1.0000   1.0000   1.0000
     1.0000   1.0000   1.0000   1.0000   1.0000   1.0000   1.0000   1.0000
     1.0000   1.0000   1.0000   1.0000   0.0000   0.0000   0.0000   0.0000
     0.0000   0.0000   0.0000   0.0000

          k =-0.0442-0.3977 0.5745 (  2994 PWs)   bands (ev):

   -14.0920 -14.0920 -14.0798 -14.0798 -13.9531 -13.9531 -13.8891 -13.8891
   -13.8773 -13.8773 -13.8659 -13.8659 -13.8407 -13.8407 -13.8019 -13.8019
   -13.6743 -13.6743 -13.6625 -13.6625  -0.2739  -0.2739   0.9128   0.9128
     4.5286   4.5286   5.4583   5.4583   9.5171   9.5171  11.2476  11.2476
    11.9376  11.9376  12.2549  12.2549

     occupation numbers 
     1.0000   1.0000   1.0000   1.0000   1.0000   1.0000   1.0000   1.0000
     1.0000   1.0000   1.0000   1.0000   1.0000   1.0000   1.0000   1.0000
     1.0000   1.0000   1.0000   1.0000   1.0000   1.0000   1.0000   1.0000
     1.0000   1.0000   1.0000   1.0000   0.0000   0.0000   0.0000   0.0000
     0.0000   0.0000   0.0000   0.0000

          k = 0.0000-0.3536 0.5303 (  2995 PWs)   bands (ev):

   -14.0906 -14.0906 -14.0786 -14.0786 -13.9584 -13.9584 -13.9010 -13.9010
   -13.8738 -13.8738 -13.8660 -13.8660 -13.8304 -13.8304 -13.7986 -13.7986
   -13.6756 -13.6756 -13.6644 -13.6644  -0.5092  -0.5092   1.1818   1.1818
     4.5410   4.5410   5.6240   5.6240   9.5952   9.5952  11.1056  11.1056
    11.5608  11.5609  12.7396  12.7396

     occupation numbers 
     1.0000   1.0000   1.0000   1.0000   1.0000   1.0000   1.0000   1.0000
     1.0000   1.0000   1.0000   1.0000   1.0000   1.0000   1.0000   1.0000
     1.0000   1.0000   1.0000   1.0000   1.0000   1.0000   1.0000   1.0000
     1.0000   1.0000   1.0000   1.0000   0.0000   0.0000   0.0000   0.0000
     0.0000   0.0000   0.0000   0.0000

          k =-0.0884-0.5303 0.7071 (  2993 PWs)   bands (ev):

   -14.0818 -14.0818 -14.0806 -14.0806 -13.9670 -13.9670 -13.9173 -13.9173
   -13.8838 -13.8838 -13.8359 -13.8359 -13.8355 -13.8355 -13.7884 -13.7884
   -13.6737 -13.6737 -13.6726 -13.6726  -0.2873  -0.2873   0.9160   0.9160
     4.9959   4.9959   5.2102   5.2102   9.1875   9.1875   9.3957   9.3957
    12.6731  12.6731  13.8974  13.8974

     occupation numbers 
     1.0000   1.0000   1.0000   1.0000   1.0000   1.0000   1.0000   1.0000
     1.0000   1.0000   1.0000   1.0000   1.0000   1.0000   1.0000   1.0000
     1.0000   1.0000   1.0000   1.0000   1.0000   1.0000   1.0000   1.0000
     1.0000   1.0000   1.0000   1.0000   0.0000   0.0000   0.0000   0.0000
     0.0000   0.0000   0.0000   0.0000

          k =-0.0442-0.4861 0.6629 (  2992 PWs)   bands (ev):

   -14.0874 -14.0874 -14.0817 -14.0817 -13.9503 -13.9503 -13.9181 -13.9181
   -13.8734 -13.8734 -13.8482 -13.8482 -13.8339 -13.8339 -13.8042 -13.8042
   -13.6723 -13.6723 -13.6666 -13.6666  -0.0037  -0.0037   0.6161   0.6161
     4.7856   4.7856   5.1688   5.1688   9.3326   9.3326   9.9982   9.9982
    12.4905  12.4905  13.2010  13.2010

     occupation numbers 
     1.0000   1.0000   1.0000   1.0000   1.0000   1.0000   1.0000   1.0000
     1.0000   1.0000   1.0000   1.0000   1.0000   1.0000   1.0000   1.0000
     1.0000   1.0000   1.0000   1.0000   1.0000   1.0000   1.0000   1.0000
     1.0000   1.0000   1.0000   1.0000   0.0000   0.0000   0.0000   0.0000
     0.0000   0.0000   0.0000   0.0000

          k = 0.0000-0.4419 0.6187 (  2996 PWs)   bands (ev):

   -14.0913 -14.0913 -14.0813 -14.0813 -13.9474 -13.9474 -13.9022 -13.9022
   -13.8726 -13.8726 -13.8524 -13.8524 -13.8471 -13.8471 -13.8066 -13.8066
   -13.6726 -13.6726 -13.6628 -13.6628  -0.0060  -0.0060   0.6275   0.6275
     4.5925   4.5925   5.2735   5.2735   9.4199   9.4199  10.8172  10.8172
    12.3322  12.3322  12.3432  12.3432

     occupation numbers 
     1.0000   1.0000   1.0000   1.0000   1.0000   1.0000   1.0000   1.0000
     1.0000   1.0000   1.0000   1.0000   1.0000   1.0000   1.0000   1.0000
     1.0000   1.0000   1.0000   1.0000   1.0000   1.0000   1.0000   1.0000
     1.0000   1.0000   1.0000   1.0000   0.0000   0.0000   0.0000   0.0000
     0.0000   0.0000   0.0000   0.0000

          k =-0.7071 0.1768 0.0000 (  2986 PWs)   bands (ev):

   -14.0825 -14.0825 -14.0825 -14.0825 -13.9440 -13.9440 -13.9435 -13.9435
   -13.8610 -13.8610 -13.8583 -13.8583 -13.8110 -13.8110 -13.8104 -13.8104
   -13.6714 -13.6714 -13.6714 -13.6714   0.2928   0.2928   0.2939   0.2939
     5.0416   5.0416   5.0417   5.0417   9.2505   9.2505   9.2507   9.2507
    13.3955  13.3955  13.3955  13.3955

     occupation numbers 
     1.0000   1.0000   1.0000   1.0000   1.0000   1.0000   1.0000   1.0000
     1.0000   1.0000   1.0000   1.0000   1.0000   1.0000   1.0000   1.0000
     1.0000   1.0000   1.0000   1.0000   1.0000   1.0000   1.0000   1.0000
     1.0000   1.0000   1.0000   1.0000   0.0000   0.0000   0.0000   0.0000
     0.0000   0.0000   0.0000   0.0000

          k =-0.1768-0.4419 0.7071 (  3000 PWs)   bands (ev):

   -14.0852 -14.0852 -14.0789 -14.0789 -13.9684 -13.9684 -13.9071 -13.9071
   -13.8753 -13.8753 -13.8701 -13.8701 -13.8167 -13.8167 -13.7900 -13.7900
   -13.6757 -13.6757 -13.6703 -13.6703  -0.6798  -0.6798   1.3946   1.3946
     4.7605   4.7605   5.5367   5.5367   9.9734   9.9734  10.1054  10.1054
    11.2648  11.2648  13.3382  13.3382

     occupation numbers 
     1.0000   1.0000   1.0000   1.0000   1.0000   1.0000   1.0000   1.0000
     1.0000   1.0000   1.0000   1.0000   1.0000   1.0000   1.0000   1.0000
     1.0000   1.0000   1.0000   1.0000   1.0000   1.0000   1.0000   1.0000
     1.0000   1.0000   1.0000   1.0000   0.0000   0.0000   0.0000   0.0000
     0.0000   0.0000   0.0000   0.0000

          k =-0.1326-0.3977 0.6629 (  3005 PWs)   bands (ev):

   -14.0895 -14.0895 -14.0810 -14.0810 -13.9548 -13.9548 -13.8967 -13.8967
   -13.8801 -13.8801 -13.8641 -13.8641 -13.8310 -13.8310 -13.8013 -13.8013
   -13.6733 -13.6733 -13.6652 -13.6652  -0.3964  -0.3964   1.0557   1.0557
     4.6330   4.6330   5.3811   5.3811   9.9989   9.9989  10.5990  10.5990
    11.3762  11.3762  12.8699  12.8699

     occupation numbers 
     1.0000   1.0000   1.0000   1.0000   1.0000   1.0000   1.0000   1.0000
     1.0000   1.0000   1.0000   1.0000   1.0000   1.0000   1.0000   1.0000
     1.0000   1.0000   1.0000   1.0000   1.0000   1.0000   1.0000   1.0000
     1.0000   1.0000   1.0000   1.0000   0.0000   0.0000   0.0000   0.0000
     0.0000   0.0000   0.0000   0.0000

          k =-0.0884-0.3536 0.6187 (  3014 PWs)   bands (ev):

   -14.0911 -14.0911 -14.0816 -14.0816 -13.9494 -13.9494 -13.8930 -13.8930
   -13.8780 -13.8780 -13.8647 -13.8647 -13.8375 -13.8375 -13.8054 -13.8054
   -13.6726 -13.6726 -13.6634 -13.6634  -0.2586  -0.2586   0.8982   0.8982
     4.5926   4.5926   5.3242   5.3242   9.9985   9.9985  10.7240  10.7240
    11.8987  11.8987  12.1901  12.1901

     occupation numbers 
     1.0000   1.0000   1.0000   1.0000   1.0000   1.0000   1.0000   1.0000
     1.0000   1.0000   1.0000   1.0000   1.0000   1.0000   1.0000   1.0000
     1.0000   1.0000   1.0000   1.0000   1.0000   1.0000   1.0000   1.0000
     1.0000   1.0000   1.0000   1.0000   0.0000   0.0000   0.0000   0.0000
     0.0000   0.0000   0.0000   0.0000

          k =-0.0884-0.4419 0.7071 (  2996 PWs)   bands (ev):

   -14.0875 -14.0875 -14.0837 -14.0837 -13.9498 -13.9498 -13.9021 -13.9021
   -13.8853 -13.8853 -13.8469 -13.8469 -13.8391 -13.8391 -13.8048 -13.8048
   -13.6704 -13.6704 -13.6669 -13.6669  -0.2039  -0.2039   0.8458   0.8458
     4.7507   4.7507   5.1426   5.1426  10.0466  10.0466  10.0890  10.0890
    11.6449  11.6449  13.0386  13.0386

     occupation numbers 
     1.0000   1.0000   1.0000   1.0000   1.0000   1.0000   1.0000   1.0000
     1.0000   1.0000   1.0000   1.0000   1.0000   1.0000   1.0000   1.0000
     1.0000   1.0000   1.0000   1.0000   1.0000   1.0000   1.0000   1.0000
     1.0000   1.0000   1.0000   1.0000   0.0000   0.0000   0.0000   0.0000
     0.0000   0.0000   0.0000   0.0000

          k =-0.0442-0.3977 0.6629 (  3005 PWs)   bands (ev):

   -14.0902 -14.0902 -14.0850 -14.0850 -13.9374 -13.9374 -13.9037 -13.9037
   -13.8764 -13.8764 -13.8523 -13.8523 -13.8433 -13.8433 -13.8151 -13.8151
   -13.6690 -13.6690 -13.6639 -13.6639   0.0158   0.0158   0.6166   0.6166
     4.6691   4.6691   5.0622   5.0622  10.1262  10.1262  10.7986  10.7986
    11.5646  11.5647  12.1806  12.1806

     occupation numbers 
     1.0000   1.0000   1.0000   1.0000   1.0000   1.0000   1.0000   1.0000
     1.0000   1.0000   1.0000   1.0000   1.0000   1.0000   1.0000   1.0000
     1.0000   1.0000   1.0000   1.0000   1.0000   1.0000   1.0000   1.0000
     1.0000   1.0000   1.0000   1.0000   0.0000   0.0000   0.0000   0.0000
     0.0000   0.0000   0.0000   0.0000

          k =-0.0000-0.3536 0.6187 (  3003 PWs)   bands (ev):

   -14.0910 -14.0910 -14.0840 -14.0840 -13.9412 -13.9412 -13.8935 -13.8935
   -13.8827 -13.8827 -13.8519 -13.8519 -13.8471 -13.8471 -13.8117 -13.8117
   -13.6701 -13.6701 -13.6632 -13.6632  -0.1061  -0.1061   0.7465   0.7465
     4.6037   4.6037   5.1663   5.1663  10.1767  10.1767  10.9801  10.9801
    11.4539  11.4539  12.0851  12.0851

     occupation numbers 
     1.0000   1.0000   1.0000   1.0000   1.0000   1.0000   1.0000   1.0000
     1.0000   1.0000   1.0000   1.0000   1.0000   1.0000   1.0000   1.0000
     1.0000   1.0000   1.0000   1.0000   1.0000   1.0000   1.0000   1.0000
     1.0000   1.0000   1.0000   1.0000   0.0000   0.0000   0.0000   0.0000
     0.0000   0.0000   0.0000   0.0000

          k =-0.7071 0.2652 0.0000 (  3004 PWs)   bands (ev):

   -14.0869 -14.0869 -14.0869 -14.0869 -13.9278 -13.9278 -13.9270 -13.9270
   -13.8636 -13.8636 -13.8609 -13.8609 -13.8248 -13.8248 -13.8240 -13.8240
   -13.6671 -13.6671 -13.6671 -13.6671   0.3087   0.3087   0.3098   0.3098
     4.8774   4.8774   4.8775   4.8775  10.0573  10.0573  10.0576  10.0576
    12.3143  12.3143  12.3144  12.3144

     occupation numbers 
     1.0000   1.0000   1.0000   1.0000   1.0000   1.0000   1.0000   1.0000
     1.0000   1.0000   1.0000   1.0000   1.0000   1.0000   1.0000   1.0000
     1.0000   1.0000   1.0000   1.0000   1.0000   1.0000   1.0000   1.0000
     1.0000   1.0000   1.0000   1.0000   0.0000   0.0000   0.0000   0.0000
     0.0000   0.0000   0.0000   0.0000

          k =-0.7071 0.3536 0.0000 (  2996 PWs)   bands (ev):

   -14.0886 -14.0886 -14.0885 -14.0885 -13.9196 -13.9196 -13.9187 -13.9187
   -13.8660 -13.8660 -13.8633 -13.8633 -13.8307 -13.8307 -13.8298 -13.8298
   -13.6654 -13.6654 -13.6654 -13.6654   0.3153   0.3153   0.3165   0.3165
     4.8151   4.8151   4.8151   4.8151  10.7231  10.7231  10.7237  10.7237
    11.5517  11.5517  11.5520  11.5520

     occupation numbers 
     1.0000   1.0000   1.0000   1.0000   1.0000   1.0000   1.0000   1.0000
     1.0000   1.0000   1.0000   1.0000   1.0000   1.0000   1.0000   1.0000
     1.0000   1.0000   1.0000   1.0000   1.0000   1.0000   1.0000   1.0000
     1.0000   1.0000   1.0000   1.0000   0.0000   0.0000   0.0000   0.0000
     0.0000   0.0000   0.0000   0.0000

     the Fermi energy is     7.5437 ev

!    total energy              =    -884.12483944 Ry
     Harris-Foulkes estimate   =    -884.12483918 Ry
     estimated scf accuracy    <       0.00000070 Ry

     total all-electron energy =    -24709.380443 Ry

     The total energy is the sum of the following terms:

     one-electron contribution =    -155.39526958 Ry
     hartree contribution      =      78.93722377 Ry
     xc contribution           =     -54.76715729 Ry
     ewald contribution        =    -167.52979536 Ry
     one-center paw contrib.   =    -585.36984083 Ry
     smearing contrib. (-TS)   =      -0.00000015 Ry

     convergence has been achieved in   5 iterations

     Writing output data file Sn.save
 
     init_run     :      5.85s CPU      6.40s WALL (       1 calls)
     electrons    :    131.86s CPU    136.39s WALL (       1 calls)

     Called by init_run:
     wfcinit      :      5.49s CPU      5.70s WALL (       1 calls)
     potinit      :      0.16s CPU      0.19s WALL (       1 calls)

     Called by electrons:
     c_bands      :    114.68s CPU    118.65s WALL (       6 calls)
     sum_band     :     16.52s CPU     16.96s WALL (       6 calls)
     v_of_rho     :      0.07s CPU      0.07s WALL (       6 calls)
     v_h          :      0.02s CPU      0.02s WALL (       6 calls)
     v_xc         :      0.05s CPU      0.05s WALL (       6 calls)
     newd         :      0.05s CPU      0.07s WALL (       6 calls)
     PAW_pot      :      0.65s CPU      0.72s WALL (       6 calls)
     mix_rho      :      0.02s CPU      0.03s WALL (       6 calls)

     Called by c_bands:
     init_us_2    :      0.18s CPU      0.23s WALL (    1885 calls)
     cegterg      :    112.95s CPU    116.70s WALL (     870 calls)

     Called by sum_band:
     sum_band:bec :      0.11s CPU      0.12s WALL (     870 calls)
     addusdens    :      0.06s CPU      0.07s WALL (       6 calls)

     Called by *egterg:
     h_psi        :     85.98s CPU     88.41s WALL (    3593 calls)
     s_psi        :      1.49s CPU      1.52s WALL (    3593 calls)
     g_psi        :      0.30s CPU      0.30s WALL (    2578 calls)
     cdiaghg      :     15.08s CPU     15.34s WALL (    3303 calls)
     cegterg:over :      6.31s CPU      6.36s WALL (    2578 calls)
     cegterg:upda :      2.78s CPU      2.80s WALL (    2578 calls)
     cegterg:last :      1.80s CPU      1.81s WALL (     985 calls)

     Called by h_psi:
     h_psi:vloc   :     81.38s CPU     83.70s WALL (    3593 calls)
     h_psi:vnl    :      4.38s CPU      4.46s WALL (    3593 calls)
     add_vuspsi   :      1.62s CPU      1.64s WALL (    3593 calls)

     General routines
     calbec       :      3.55s CPU      3.63s WALL (    4463 calls)
     fft          :      0.09s CPU      0.17s WALL (     116 calls)
     fftw         :     89.86s CPU     92.38s WALL (  429068 calls)
     davcio       :      0.02s CPU      0.38s WALL (     145 calls)
 
     Parallel routines
     fft_scatter  :     51.27s CPU     52.97s WALL (  429184 calls)

     PAW routines
     PAW_pot      :      0.65s CPU      0.72s WALL (       6 calls)
     PAW_symme    :      0.01s CPU      0.01s WALL (      12 calls)
 
     PWSCF        :  2m18.47s CPU     2m24.58s WALL

 
   This run was terminated on:  19:59:37  15Mar2020            

=------------------------------------------------------------------------------=
   JOB DONE.
=------------------------------------------------------------------------------=
