
     Program PWSCF v.5.4.0 starts on  9Mar2020 at  0: 7:52 

     This program is part of the open-source Quantum ESPRESSO suite
     for quantum simulation of materials; please cite
         "P. Giannozzi et al., J. Phys.:Condens. Matter 21 395502 (2009);
          URL http://www.quantum-espresso.org", 
     in publications or presentations arising from this work. More details at
     http://www.quantum-espresso.org/quote

     Parallel version (MPI & OpenMP), running on      16 processor cores
     Number of MPI processes:                16
     Threads/MPI process:                     1
     R & G space division:  proc/nbgrp/npool/nimage =      16
     Waiting for input...
     Reading input from standard input
Warning: card &IONS ignored
Warning: card / ignored
Warning: card &CELL ignored
Warning: card / ignored

     Current dimensions of program PWSCF are:
     Max number of different atomic species (ntypx) = 10
     Max number of k-points (npk) =  40000
     Max angular momentum in pseudopotentials (lmaxx) =  3
               file Sn.rel-pbe-dn-kjpaw_psl.1.0.0.UPF: wavefunction(s)  5S 5P 5P 4D 4D renormalized

     Subspace diagonalization in iterative solution of the eigenvalue problem:
     a serial algorithm will be used

 
     Parallelization info
     --------------------
     sticks:   dense  smooth     PW     G-vecs:    dense   smooth      PW
     Min         104     104     30                 2859     2859     444
     Max         105     105     32                 2862     2862     446
     Sum        1675    1675    499                45767    45767    7119
 

     Title: 
     Sn                                                                         


     bravais-lattice index     =            0
     lattice parameter (alat)  =       8.7524  a.u.
     unit-cell volume          =     474.0897 (a.u.)^3
     number of atoms/cell      =            2
     number of atomic types    =            1
     number of electrons       =        28.00
     number of Kohn-Sham states=           36
     kinetic-energy cutoff     =      80.0000  Ry
     charge density cutoff     =     320.0000  Ry
     convergence threshold     =      1.0E-06
     mixing beta               =       0.7000
     number of iterations used =            8  plain     mixing
     Exchange-correlation      =  SLA  PW   PBX  PBC ( 1  4  3  4 0 0)
     Non magnetic calculation with spin-orbit


     celldm(1)=   8.752360  celldm(2)=   0.000000  celldm(3)=   0.000000
     celldm(4)=   0.000000  celldm(5)=   0.000000  celldm(6)=   0.000000

     crystal axes: (cart. coord. in units of alat)
               a(1) = (   0.000000   0.707107   0.707107 )  
               a(2) = (   0.707107   0.000000   0.707107 )  
               a(3) = (   0.707107   0.707107   0.000000 )  

     reciprocal axes: (cart. coord. in units 2 pi/alat)
               b(1) = ( -0.707107  0.707107  0.707107 )  
               b(2) = (  0.707107 -0.707107  0.707107 )  
               b(3) = (  0.707107  0.707107 -0.707107 )  


     PseudoPot. # 1 for Sn read from file:
     ../PseudopotentialDatabase/Sn.rel-pbe-dn-kjpaw_psl.1.0.0.UPF
     MD5 check sum: 6bcaba2b82cf8d008985ef5bb9854e68
     Pseudo is Projector augmented-wave + core cor, Zval = 14.0
     Generated using "atomic" code by A. Dal Corso  v.6.3
     Shape of augmentation charge: PSQ
     Using radial grid of 1243 points, 10 beta functions with: 
                l(1) =   0
                l(2) =   0
                l(3) =   1
                l(4) =   1
                l(5) =   1
                l(6) =   1
                l(7) =   2
                l(8) =   2
                l(9) =   2
               l(10) =   2
     Q(r) pseudized with 0 coefficients 


     atomic species   valence    mass     pseudopotential
        Sn            14.00   118.71000     Sn( 1.00)

     24 Sym. Ops. (no inversion) found
          (note: 24 additional sym.ops. were found but ignored
           their fractional translations are incommensurate with FFT grid)

                                    s                        frac. trans.

      isym =  1     identity                                     

 cryst.   s( 1) = (     1          0          0      )
                  (     0          1          0      )
                  (     0          0          1      )

 cart.    s( 1) = (  1.0000000  0.0000000  0.0000000 )
                  (  0.0000000  1.0000000  0.0000000 )
                  (  0.0000000  0.0000000  1.0000000 )


      isym =  2     180 deg rotation - cart. axis [0,0,1]        

 cryst.   s( 2) = (     0          1         -1      )
                  (     1          0         -1      )
                  (     0          0         -1      )

 cart.    s( 2) = ( -1.0000000  0.0000000  0.0000000 )
                  (  0.0000000 -1.0000000  0.0000000 )
                  (  0.0000000  0.0000000  1.0000000 )


      isym =  3     180 deg rotation - cart. axis [0,1,0]        

 cryst.   s( 3) = (     0         -1          1      )
                  (     0         -1          0      )
                  (     1         -1          0      )

 cart.    s( 3) = ( -1.0000000  0.0000000  0.0000000 )
                  (  0.0000000  1.0000000  0.0000000 )
                  (  0.0000000  0.0000000 -1.0000000 )


      isym =  4     180 deg rotation - cart. axis [1,0,0]        

 cryst.   s( 4) = (    -1          0          0      )
                  (    -1          0          1      )
                  (    -1          1          0      )

 cart.    s( 4) = (  1.0000000  0.0000000  0.0000000 )
                  (  0.0000000 -1.0000000  0.0000000 )
                  (  0.0000000  0.0000000 -1.0000000 )


      isym =  5     120 deg rotation - cart. axis [-1,-1,-1]     

 cryst.   s( 5) = (     0          0          1      )
                  (     1          0          0      )
                  (     0          1          0      )

 cart.    s( 5) = (  0.0000000  1.0000000  0.0000000 )
                  (  0.0000000  0.0000000  1.0000000 )
                  (  1.0000000  0.0000000  0.0000000 )


      isym =  6     120 deg rotation - cart. axis [-1,1,1]       

 cryst.   s( 6) = (     1         -1          0      )
                  (     0         -1          1      )
                  (     0         -1          0      )

 cart.    s( 6) = (  0.0000000 -1.0000000  0.0000000 )
                  (  0.0000000  0.0000000  1.0000000 )
                  ( -1.0000000  0.0000000  0.0000000 )


      isym =  7     120 deg rotation - cart. axis [1,1,-1]       

 cryst.   s( 7) = (    -1          1          0      )
                  (    -1          0          0      )
                  (    -1          0          1      )

 cart.    s( 7) = (  0.0000000  1.0000000  0.0000000 )
                  (  0.0000000  0.0000000 -1.0000000 )
                  ( -1.0000000  0.0000000  0.0000000 )


      isym =  8     120 deg rotation - cart. axis [1,-1,1]       

 cryst.   s( 8) = (     0          0         -1      )
                  (     0          1         -1      )
                  (     1          0         -1      )

 cart.    s( 8) = (  0.0000000 -1.0000000  0.0000000 )
                  (  0.0000000  0.0000000 -1.0000000 )
                  (  1.0000000  0.0000000  0.0000000 )


      isym =  9     120 deg rotation - cart. axis [1,1,1]        

 cryst.   s( 9) = (     0          1          0      )
                  (     0          0          1      )
                  (     1          0          0      )

 cart.    s( 9) = (  0.0000000  0.0000000  1.0000000 )
                  (  1.0000000  0.0000000  0.0000000 )
                  (  0.0000000  1.0000000  0.0000000 )


      isym = 10     120 deg rotation - cart. axis [-1,1,-1]      

 cryst.   s(10) = (    -1          0          1      )
                  (    -1          1          0      )
                  (    -1          0          0      )

 cart.    s(10) = (  0.0000000  0.0000000  1.0000000 )
                  ( -1.0000000  0.0000000  0.0000000 )
                  (  0.0000000 -1.0000000  0.0000000 )


      isym = 11     120 deg rotation - cart. axis [1,-1,-1]      

 cryst.   s(11) = (     1          0         -1      )
                  (     0          0         -1      )
                  (     0          1         -1      )

 cart.    s(11) = (  0.0000000  0.0000000 -1.0000000 )
                  ( -1.0000000  0.0000000  0.0000000 )
                  (  0.0000000  1.0000000  0.0000000 )


      isym = 12     120 deg rotation - cart. axis [-1,-1,1]      

 cryst.   s(12) = (     0         -1          0      )
                  (     1         -1          0      )
                  (     0         -1          1      )

 cart.    s(12) = (  0.0000000  0.0000000 -1.0000000 )
                  (  1.0000000  0.0000000  0.0000000 )
                  (  0.0000000 -1.0000000  0.0000000 )


      isym = 13     inv. 180 deg rotation - cart. axis [1,1,0]   

 cryst.   s(13) = (     1          0         -1      )
                  (     0          1         -1      )
                  (     0          0         -1      )

 cart.    s(13) = (  0.0000000 -1.0000000  0.0000000 )
                  ( -1.0000000  0.0000000  0.0000000 )
                  (  0.0000000  0.0000000  1.0000000 )


      isym = 14     inv. 180 deg rotation - cart. axis [1,-1,0]  

 cryst.   s(14) = (     0          1          0      )
                  (     1          0          0      )
                  (     0          0          1      )

 cart.    s(14) = (  0.0000000  1.0000000  0.0000000 )
                  (  1.0000000  0.0000000  0.0000000 )
                  (  0.0000000  0.0000000  1.0000000 )


      isym = 15     inv.  90 deg rotation - cart. axis [0,0,-1]  

 cryst.   s(15) = (     0         -1          0      )
                  (     0         -1          1      )
                  (     1         -1          0      )

 cart.    s(15) = (  0.0000000 -1.0000000  0.0000000 )
                  (  1.0000000  0.0000000  0.0000000 )
                  (  0.0000000  0.0000000 -1.0000000 )


      isym = 16     inv.  90 deg rotation - cart. axis [0,0,1]   

 cryst.   s(16) = (    -1          0          1      )
                  (    -1          0          0      )
                  (    -1          1          0      )

 cart.    s(16) = (  0.0000000  1.0000000  0.0000000 )
                  ( -1.0000000  0.0000000  0.0000000 )
                  (  0.0000000  0.0000000 -1.0000000 )


      isym = 17     inv. 180 deg rotation - cart. axis [1,0,1]   

 cryst.   s(17) = (     1         -1          0      )
                  (     0         -1          0      )
                  (     0         -1          1      )

 cart.    s(17) = (  0.0000000  0.0000000 -1.0000000 )
                  (  0.0000000  1.0000000  0.0000000 )
                  ( -1.0000000  0.0000000  0.0000000 )


      isym = 18     inv. 180 deg rotation - cart. axis [-1,0,1]  

 cryst.   s(18) = (     0          0          1      )
                  (     0          1          0      )
                  (     1          0          0      )

 cart.    s(18) = (  0.0000000  0.0000000  1.0000000 )
                  (  0.0000000  1.0000000  0.0000000 )
                  (  1.0000000  0.0000000  0.0000000 )


      isym = 19     inv.  90 deg rotation - cart. axis [0,1,0]   

 cryst.   s(19) = (     0          0         -1      )
                  (     1          0         -1      )
                  (     0          1         -1      )

 cart.    s(19) = (  0.0000000  0.0000000 -1.0000000 )
                  (  0.0000000 -1.0000000  0.0000000 )
                  (  1.0000000  0.0000000  0.0000000 )


      isym = 20     inv.  90 deg rotation - cart. axis [0,-1,0]  

 cryst.   s(20) = (    -1          1          0      )
                  (    -1          0          1      )
                  (    -1          0          0      )

 cart.    s(20) = (  0.0000000  0.0000000  1.0000000 )
                  (  0.0000000 -1.0000000  0.0000000 )
                  ( -1.0000000  0.0000000  0.0000000 )


      isym = 21     inv. 180 deg rotation - cart. axis [0,1,1]   

 cryst.   s(21) = (    -1          0          0      )
                  (    -1          1          0      )
                  (    -1          0          1      )

 cart.    s(21) = (  1.0000000  0.0000000  0.0000000 )
                  (  0.0000000  0.0000000 -1.0000000 )
                  (  0.0000000 -1.0000000  0.0000000 )


      isym = 22     inv. 180 deg rotation - cart. axis [0,1,-1]  

 cryst.   s(22) = (     1          0          0      )
                  (     0          0          1      )
                  (     0          1          0      )

 cart.    s(22) = (  1.0000000  0.0000000  0.0000000 )
                  (  0.0000000  0.0000000  1.0000000 )
                  (  0.0000000  1.0000000  0.0000000 )


      isym = 23     inv.  90 deg rotation - cart. axis [-1,0,0]  

 cryst.   s(23) = (     0          1         -1      )
                  (     0          0         -1      )
                  (     1          0         -1      )

 cart.    s(23) = ( -1.0000000  0.0000000  0.0000000 )
                  (  0.0000000  0.0000000 -1.0000000 )
                  (  0.0000000  1.0000000  0.0000000 )


      isym = 24     inv.  90 deg rotation - cart. axis [1,0,0]   

 cryst.   s(24) = (     0         -1          1      )
                  (     1         -1          0      )
                  (     0         -1          0      )

 cart.    s(24) = ( -1.0000000  0.0000000  0.0000000 )
                  (  0.0000000  0.0000000  1.0000000 )
                  (  0.0000000 -1.0000000  0.0000000 )


   Cartesian axes

     site n.     atom                  positions (alat units)
         1           Sn  tau(   1) = (   0.0000000   0.0000000   0.0000000  )
         2           Sn  tau(   2) = (   0.3535534   0.3535534   0.3535534  )

   Crystallographic axes

     site n.     atom                  positions (cryst. coord.)
         1           Sn  tau(   1) = (  0.0000000  0.0000000  0.0000000  )
         2           Sn  tau(   2) = (  0.2500000  0.2500000  0.2500000  )

     number of k points=   145  gaussian smearing, width (Ry)=  0.0001
                       cart. coord. in units 2pi/alat
        k(    1) = (   0.0000000   0.0000000   0.0000000), wk =   0.0002441
        k(    2) = (   0.0441942   0.0441942  -0.0441942), wk =   0.0019531
        k(    3) = (   0.0883883   0.0883883  -0.0883883), wk =   0.0019531
        k(    4) = (   0.1325825   0.1325825  -0.1325825), wk =   0.0019531
        k(    5) = (   0.1767767   0.1767767  -0.1767767), wk =   0.0019531
        k(    6) = (   0.2209709   0.2209709  -0.2209709), wk =   0.0019531
        k(    7) = (   0.2651650   0.2651650  -0.2651650), wk =   0.0019531
        k(    8) = (   0.3093592   0.3093592  -0.3093592), wk =   0.0019531
        k(    9) = (  -0.3535534  -0.3535534   0.3535534), wk =   0.0009766
        k(   10) = (   0.0883883   0.0000000   0.0000000), wk =   0.0014648
        k(   11) = (   0.1325825   0.0441942  -0.0441942), wk =   0.0058594
        k(   12) = (   0.1767767   0.0883883  -0.0883883), wk =   0.0058594
        k(   13) = (   0.2209709   0.1325825  -0.1325825), wk =   0.0058594
        k(   14) = (   0.2651650   0.1767767  -0.1767767), wk =   0.0058594
        k(   15) = (   0.3093592   0.2209709  -0.2209709), wk =   0.0058594
        k(   16) = (   0.3535534   0.2651650  -0.2651650), wk =   0.0058594
        k(   17) = (  -0.3093592  -0.3977476   0.3977476), wk =   0.0058594
        k(   18) = (  -0.2651650  -0.3535534   0.3535534), wk =   0.0058594
        k(   19) = (  -0.2209709  -0.3093592   0.3093592), wk =   0.0058594
        k(   20) = (  -0.1767767  -0.2651650   0.2651650), wk =   0.0058594
        k(   21) = (  -0.1325825  -0.2209709   0.2209709), wk =   0.0058594
        k(   22) = (  -0.0883883  -0.1767767   0.1767767), wk =   0.0058594
        k(   23) = (  -0.0441942  -0.1325825   0.1325825), wk =   0.0058594
        k(   24) = (   0.0000000  -0.0883883   0.0883883), wk =   0.0029297
        k(   25) = (   0.1767767   0.0000000   0.0000000), wk =   0.0014648
        k(   26) = (   0.2209709   0.0441942  -0.0441942), wk =   0.0058594
        k(   27) = (   0.2651650   0.0883883  -0.0883883), wk =   0.0058594
        k(   28) = (   0.3093592   0.1325825  -0.1325825), wk =   0.0058594
        k(   29) = (   0.3535534   0.1767767  -0.1767767), wk =   0.0058594
        k(   30) = (   0.3977476   0.2209709  -0.2209709), wk =   0.0058594
        k(   31) = (  -0.2651650  -0.4419417   0.4419417), wk =   0.0058594
        k(   32) = (  -0.2209709  -0.3977476   0.3977476), wk =   0.0058594
        k(   33) = (  -0.1767767  -0.3535534   0.3535534), wk =   0.0058594
        k(   34) = (  -0.1325825  -0.3093592   0.3093592), wk =   0.0058594
        k(   35) = (  -0.0883883  -0.2651650   0.2651650), wk =   0.0058594
        k(   36) = (  -0.0441942  -0.2209709   0.2209709), wk =   0.0058594
        k(   37) = (   0.0000000  -0.1767767   0.1767767), wk =   0.0029297
        k(   38) = (   0.2651650   0.0000000   0.0000000), wk =   0.0014648
        k(   39) = (   0.3093592   0.0441942  -0.0441942), wk =   0.0058594
        k(   40) = (   0.3535534   0.0883883  -0.0883883), wk =   0.0058594
        k(   41) = (   0.3977476   0.1325825  -0.1325825), wk =   0.0058594
        k(   42) = (   0.4419417   0.1767767  -0.1767767), wk =   0.0058594
        k(   43) = (  -0.2209709  -0.4861359   0.4861359), wk =   0.0058594
        k(   44) = (  -0.1767767  -0.4419417   0.4419417), wk =   0.0058594
        k(   45) = (  -0.1325825  -0.3977476   0.3977476), wk =   0.0058594
        k(   46) = (  -0.0883883  -0.3535534   0.3535534), wk =   0.0058594
        k(   47) = (  -0.0441942  -0.3093592   0.3093592), wk =   0.0058594
        k(   48) = (   0.0000000  -0.2651650   0.2651650), wk =   0.0029297
        k(   49) = (   0.3535534   0.0000000   0.0000000), wk =   0.0014648
        k(   50) = (   0.3977476   0.0441942  -0.0441942), wk =   0.0058594
        k(   51) = (   0.4419417   0.0883883  -0.0883883), wk =   0.0058594
        k(   52) = (   0.4861359   0.1325825  -0.1325825), wk =   0.0058594
        k(   53) = (  -0.1767767  -0.5303301   0.5303301), wk =   0.0058594
        k(   54) = (  -0.1325825  -0.4861359   0.4861359), wk =   0.0058594
        k(   55) = (  -0.0883883  -0.4419417   0.4419417), wk =   0.0058594
        k(   56) = (  -0.0441942  -0.3977476   0.3977476), wk =   0.0058594
        k(   57) = (   0.0000000  -0.3535534   0.3535534), wk =   0.0029297
        k(   58) = (   0.4419417   0.0000000   0.0000000), wk =   0.0014648
        k(   59) = (   0.4861359   0.0441942  -0.0441942), wk =   0.0058594
        k(   60) = (   0.5303301   0.0883883  -0.0883883), wk =   0.0058594
        k(   61) = (  -0.1325825  -0.5745243   0.5745243), wk =   0.0058594
        k(   62) = (  -0.0883883  -0.5303301   0.5303301), wk =   0.0058594
        k(   63) = (  -0.0441942  -0.4861359   0.4861359), wk =   0.0058594
        k(   64) = (   0.0000000  -0.4419417   0.4419417), wk =   0.0029297
        k(   65) = (   0.5303301   0.0000000   0.0000000), wk =   0.0014648
        k(   66) = (   0.5745243   0.0441942  -0.0441942), wk =   0.0058594
        k(   67) = (  -0.0883883  -0.6187184   0.6187184), wk =   0.0058594
        k(   68) = (  -0.0441942  -0.5745243   0.5745243), wk =   0.0058594
        k(   69) = (   0.0000000  -0.5303301   0.5303301), wk =   0.0029297
        k(   70) = (   0.6187184   0.0000000   0.0000000), wk =   0.0014648
        k(   71) = (  -0.0441942  -0.6629126   0.6629126), wk =   0.0058594
        k(   72) = (   0.0000000  -0.6187184   0.6187184), wk =   0.0029297
        k(   73) = (  -0.7071068   0.0000000   0.0000000), wk =   0.0007324
        k(   74) = (   0.1767767   0.0883883   0.0000000), wk =   0.0058594
        k(   75) = (   0.2209709   0.1325825  -0.0441942), wk =   0.0117188
        k(   76) = (   0.2651650   0.1767767  -0.0883883), wk =   0.0117188
        k(   77) = (   0.3093592   0.2209709  -0.1325825), wk =   0.0117188
        k(   78) = (   0.3535534   0.2651650  -0.1767767), wk =   0.0117188
        k(   79) = (  -0.3093592  -0.3977476   0.4861359), wk =   0.0117188
        k(   80) = (  -0.2651650  -0.3535534   0.4419417), wk =   0.0058594
        k(   81) = (   0.2651650   0.0883883   0.0000000), wk =   0.0058594
        k(   82) = (   0.3093592   0.1325825  -0.0441942), wk =   0.0117188
        k(   83) = (   0.3535534   0.1767767  -0.0883883), wk =   0.0117188
        k(   84) = (   0.3977476   0.2209709  -0.1325825), wk =   0.0117188
        k(   85) = (  -0.2651650  -0.4419417   0.5303301), wk =   0.0117188
        k(   86) = (  -0.2209709  -0.3977476   0.4861359), wk =   0.0117188
        k(   87) = (  -0.1767767  -0.3535534   0.4419417), wk =   0.0117188
        k(   88) = (  -0.1325825  -0.3093592   0.3977476), wk =   0.0117188
        k(   89) = (  -0.0883883  -0.2651650   0.3535534), wk =   0.0117188
        k(   90) = (  -0.0441942  -0.2209709   0.3093592), wk =   0.0117188
        k(   91) = (   0.0000000  -0.1767767   0.2651650), wk =   0.0058594
        k(   92) = (   0.3535534   0.0883883   0.0000000), wk =   0.0058594
        k(   93) = (   0.3977476   0.1325825  -0.0441942), wk =   0.0117188
        k(   94) = (   0.4419417   0.1767767  -0.0883883), wk =   0.0117188
        k(   95) = (  -0.2209709  -0.4861359   0.5745243), wk =   0.0117188
        k(   96) = (  -0.1767767  -0.4419417   0.5303301), wk =   0.0117188
        k(   97) = (  -0.1325825  -0.3977476   0.4861359), wk =   0.0117188
        k(   98) = (  -0.0883883  -0.3535534   0.4419417), wk =   0.0117188
        k(   99) = (  -0.0441942  -0.3093592   0.3977476), wk =   0.0117188
        k(  100) = (   0.0000000  -0.2651650   0.3535534), wk =   0.0058594
        k(  101) = (   0.4419417   0.0883883   0.0000000), wk =   0.0058594
        k(  102) = (   0.4861359   0.1325825  -0.0441942), wk =   0.0117188
        k(  103) = (  -0.1767767  -0.5303301   0.6187184), wk =   0.0117188
        k(  104) = (  -0.1325825  -0.4861359   0.5745243), wk =   0.0117188
        k(  105) = (  -0.0883883  -0.4419417   0.5303301), wk =   0.0117188
        k(  106) = (  -0.0441942  -0.3977476   0.4861359), wk =   0.0117188
        k(  107) = (   0.0000000  -0.3535534   0.4419417), wk =   0.0058594
        k(  108) = (   0.5303301   0.0883883   0.0000000), wk =   0.0058594
        k(  109) = (  -0.1325825  -0.5745243   0.6629126), wk =   0.0117188
        k(  110) = (  -0.0883883  -0.5303301   0.6187184), wk =   0.0117188
        k(  111) = (  -0.0441942  -0.4861359   0.5745243), wk =   0.0117188
        k(  112) = (   0.0000000  -0.4419417   0.5303301), wk =   0.0058594
        k(  113) = (  -0.0883883  -0.6187184   0.7071068), wk =   0.0058594
        k(  114) = (  -0.0441942  -0.5745243   0.6629126), wk =   0.0117188
        k(  115) = (  -0.0000000  -0.5303301   0.6187184), wk =   0.0058594
        k(  116) = (  -0.7071068   0.0883883   0.0000000), wk =   0.0029297
        k(  117) = (   0.3535534   0.1767767   0.0000000), wk =   0.0058594
        k(  118) = (   0.3977476   0.2209709  -0.0441942), wk =   0.0117188
        k(  119) = (  -0.2651650  -0.4419417   0.6187184), wk =   0.0117188
        k(  120) = (  -0.2209709  -0.3977476   0.5745243), wk =   0.0117188
        k(  121) = (  -0.1767767  -0.3535534   0.5303301), wk =   0.0058594
        k(  122) = (   0.4419417   0.1767767   0.0000000), wk =   0.0058594
        k(  123) = (  -0.2209709  -0.4861359   0.6629126), wk =   0.0117188
        k(  124) = (  -0.1767767  -0.4419417   0.6187184), wk =   0.0117188
        k(  125) = (  -0.1325825  -0.3977476   0.5745243), wk =   0.0117188
        k(  126) = (  -0.0883883  -0.3535534   0.5303301), wk =   0.0117188
        k(  127) = (  -0.0441942  -0.3093592   0.4861359), wk =   0.0117188
        k(  128) = (   0.0000000  -0.2651650   0.4419417), wk =   0.0058594
        k(  129) = (  -0.1767767  -0.5303301   0.7071068), wk =   0.0058594
        k(  130) = (  -0.1325825  -0.4861359   0.6629126), wk =   0.0117188
        k(  131) = (  -0.0883883  -0.4419417   0.6187184), wk =   0.0117188
        k(  132) = (  -0.0441942  -0.3977476   0.5745243), wk =   0.0117188
        k(  133) = (   0.0000000  -0.3535534   0.5303301), wk =   0.0058594
        k(  134) = (  -0.0883883  -0.5303301   0.7071068), wk =   0.0058594
        k(  135) = (  -0.0441942  -0.4861359   0.6629126), wk =   0.0117188
        k(  136) = (   0.0000000  -0.4419417   0.6187184), wk =   0.0058594
        k(  137) = (  -0.7071068   0.1767767   0.0000000), wk =   0.0029297
        k(  138) = (  -0.1767767  -0.4419417   0.7071068), wk =   0.0058594
        k(  139) = (  -0.1325825  -0.3977476   0.6629126), wk =   0.0117188
        k(  140) = (  -0.0883883  -0.3535534   0.6187184), wk =   0.0058594
        k(  141) = (  -0.0883883  -0.4419417   0.7071068), wk =   0.0058594
        k(  142) = (  -0.0441942  -0.3977476   0.6629126), wk =   0.0117188
        k(  143) = (  -0.0000000  -0.3535534   0.6187184), wk =   0.0058594
        k(  144) = (  -0.7071068   0.2651650   0.0000000), wk =   0.0029297
        k(  145) = (  -0.7071068   0.3535534   0.0000000), wk =   0.0014648

                       cryst. coord.
        k(    1) = (   0.0000000   0.0000000   0.0000000), wk =   0.0002441
        k(    2) = (   0.0000000   0.0000000   0.0625000), wk =   0.0019531
        k(    3) = (   0.0000000   0.0000000   0.1250000), wk =   0.0019531
        k(    4) = (   0.0000000   0.0000000   0.1875000), wk =   0.0019531
        k(    5) = (   0.0000000   0.0000000   0.2500000), wk =   0.0019531
        k(    6) = (   0.0000000   0.0000000   0.3125000), wk =   0.0019531
        k(    7) = (   0.0000000   0.0000000   0.3750000), wk =   0.0019531
        k(    8) = (   0.0000000   0.0000000   0.4375000), wk =   0.0019531
        k(    9) = (   0.0000000   0.0000000  -0.5000000), wk =   0.0009766
        k(   10) = (   0.0000000   0.0625000   0.0625000), wk =   0.0014648
        k(   11) = (   0.0000000   0.0625000   0.1250000), wk =   0.0058594
        k(   12) = (   0.0000000   0.0625000   0.1875000), wk =   0.0058594
        k(   13) = (   0.0000000   0.0625000   0.2500000), wk =   0.0058594
        k(   14) = (   0.0000000   0.0625000   0.3125000), wk =   0.0058594
        k(   15) = (   0.0000000   0.0625000   0.3750000), wk =   0.0058594
        k(   16) = (   0.0000000   0.0625000   0.4375000), wk =   0.0058594
        k(   17) = (   0.0000000   0.0625000  -0.5000000), wk =   0.0058594
        k(   18) = (   0.0000000   0.0625000  -0.4375000), wk =   0.0058594
        k(   19) = (   0.0000000   0.0625000  -0.3750000), wk =   0.0058594
        k(   20) = (   0.0000000   0.0625000  -0.3125000), wk =   0.0058594
        k(   21) = (   0.0000000   0.0625000  -0.2500000), wk =   0.0058594
        k(   22) = (   0.0000000   0.0625000  -0.1875000), wk =   0.0058594
        k(   23) = (   0.0000000   0.0625000  -0.1250000), wk =   0.0058594
        k(   24) = (   0.0000000   0.0625000  -0.0625000), wk =   0.0029297
        k(   25) = (   0.0000000   0.1250000   0.1250000), wk =   0.0014648
        k(   26) = (   0.0000000   0.1250000   0.1875000), wk =   0.0058594
        k(   27) = (   0.0000000   0.1250000   0.2500000), wk =   0.0058594
        k(   28) = (   0.0000000   0.1250000   0.3125000), wk =   0.0058594
        k(   29) = (   0.0000000   0.1250000   0.3750000), wk =   0.0058594
        k(   30) = (   0.0000000   0.1250000   0.4375000), wk =   0.0058594
        k(   31) = (   0.0000000   0.1250000  -0.5000000), wk =   0.0058594
        k(   32) = (   0.0000000   0.1250000  -0.4375000), wk =   0.0058594
        k(   33) = (   0.0000000   0.1250000  -0.3750000), wk =   0.0058594
        k(   34) = (   0.0000000   0.1250000  -0.3125000), wk =   0.0058594
        k(   35) = (   0.0000000   0.1250000  -0.2500000), wk =   0.0058594
        k(   36) = (   0.0000000   0.1250000  -0.1875000), wk =   0.0058594
        k(   37) = (   0.0000000   0.1250000  -0.1250000), wk =   0.0029297
        k(   38) = (   0.0000000   0.1875000   0.1875000), wk =   0.0014648
        k(   39) = (   0.0000000   0.1875000   0.2500000), wk =   0.0058594
        k(   40) = (   0.0000000   0.1875000   0.3125000), wk =   0.0058594
        k(   41) = (   0.0000000   0.1875000   0.3750000), wk =   0.0058594
        k(   42) = (   0.0000000   0.1875000   0.4375000), wk =   0.0058594
        k(   43) = (   0.0000000   0.1875000  -0.5000000), wk =   0.0058594
        k(   44) = (   0.0000000   0.1875000  -0.4375000), wk =   0.0058594
        k(   45) = (   0.0000000   0.1875000  -0.3750000), wk =   0.0058594
        k(   46) = (   0.0000000   0.1875000  -0.3125000), wk =   0.0058594
        k(   47) = (   0.0000000   0.1875000  -0.2500000), wk =   0.0058594
        k(   48) = (   0.0000000   0.1875000  -0.1875000), wk =   0.0029297
        k(   49) = (   0.0000000   0.2500000   0.2500000), wk =   0.0014648
        k(   50) = (   0.0000000   0.2500000   0.3125000), wk =   0.0058594
        k(   51) = (   0.0000000   0.2500000   0.3750000), wk =   0.0058594
        k(   52) = (   0.0000000   0.2500000   0.4375000), wk =   0.0058594
        k(   53) = (   0.0000000   0.2500000  -0.5000000), wk =   0.0058594
        k(   54) = (   0.0000000   0.2500000  -0.4375000), wk =   0.0058594
        k(   55) = (   0.0000000   0.2500000  -0.3750000), wk =   0.0058594
        k(   56) = (   0.0000000   0.2500000  -0.3125000), wk =   0.0058594
        k(   57) = (   0.0000000   0.2500000  -0.2500000), wk =   0.0029297
        k(   58) = (   0.0000000   0.3125000   0.3125000), wk =   0.0014648
        k(   59) = (   0.0000000   0.3125000   0.3750000), wk =   0.0058594
        k(   60) = (   0.0000000   0.3125000   0.4375000), wk =   0.0058594
        k(   61) = (   0.0000000   0.3125000  -0.5000000), wk =   0.0058594
        k(   62) = (   0.0000000   0.3125000  -0.4375000), wk =   0.0058594
        k(   63) = (   0.0000000   0.3125000  -0.3750000), wk =   0.0058594
        k(   64) = (   0.0000000   0.3125000  -0.3125000), wk =   0.0029297
        k(   65) = (   0.0000000   0.3750000   0.3750000), wk =   0.0014648
        k(   66) = (   0.0000000   0.3750000   0.4375000), wk =   0.0058594
        k(   67) = (   0.0000000   0.3750000  -0.5000000), wk =   0.0058594
        k(   68) = (   0.0000000   0.3750000  -0.4375000), wk =   0.0058594
        k(   69) = (   0.0000000   0.3750000  -0.3750000), wk =   0.0029297
        k(   70) = (   0.0000000   0.4375000   0.4375000), wk =   0.0014648
        k(   71) = (   0.0000000   0.4375000  -0.5000000), wk =   0.0058594
        k(   72) = (   0.0000000   0.4375000  -0.4375000), wk =   0.0029297
        k(   73) = (   0.0000000  -0.5000000  -0.5000000), wk =   0.0007324
        k(   74) = (   0.0625000   0.1250000   0.1875000), wk =   0.0058594
        k(   75) = (   0.0625000   0.1250000   0.2500000), wk =   0.0117188
        k(   76) = (   0.0625000   0.1250000   0.3125000), wk =   0.0117188
        k(   77) = (   0.0625000   0.1250000   0.3750000), wk =   0.0117188
        k(   78) = (   0.0625000   0.1250000   0.4375000), wk =   0.0117188
        k(   79) = (   0.0625000   0.1250000  -0.5000000), wk =   0.0117188
        k(   80) = (   0.0625000   0.1250000  -0.4375000), wk =   0.0058594
        k(   81) = (   0.0625000   0.1875000   0.2500000), wk =   0.0058594
        k(   82) = (   0.0625000   0.1875000   0.3125000), wk =   0.0117188
        k(   83) = (   0.0625000   0.1875000   0.3750000), wk =   0.0117188
        k(   84) = (   0.0625000   0.1875000   0.4375000), wk =   0.0117188
        k(   85) = (   0.0625000   0.1875000  -0.5000000), wk =   0.0117188
        k(   86) = (   0.0625000   0.1875000  -0.4375000), wk =   0.0117188
        k(   87) = (   0.0625000   0.1875000  -0.3750000), wk =   0.0117188
        k(   88) = (   0.0625000   0.1875000  -0.3125000), wk =   0.0117188
        k(   89) = (   0.0625000   0.1875000  -0.2500000), wk =   0.0117188
        k(   90) = (   0.0625000   0.1875000  -0.1875000), wk =   0.0117188
        k(   91) = (   0.0625000   0.1875000  -0.1250000), wk =   0.0058594
        k(   92) = (   0.0625000   0.2500000   0.3125000), wk =   0.0058594
        k(   93) = (   0.0625000   0.2500000   0.3750000), wk =   0.0117188
        k(   94) = (   0.0625000   0.2500000   0.4375000), wk =   0.0117188
        k(   95) = (   0.0625000   0.2500000  -0.5000000), wk =   0.0117188
        k(   96) = (   0.0625000   0.2500000  -0.4375000), wk =   0.0117188
        k(   97) = (   0.0625000   0.2500000  -0.3750000), wk =   0.0117188
        k(   98) = (   0.0625000   0.2500000  -0.3125000), wk =   0.0117188
        k(   99) = (   0.0625000   0.2500000  -0.2500000), wk =   0.0117188
        k(  100) = (   0.0625000   0.2500000  -0.1875000), wk =   0.0058594
        k(  101) = (   0.0625000   0.3125000   0.3750000), wk =   0.0058594
        k(  102) = (   0.0625000   0.3125000   0.4375000), wk =   0.0117188
        k(  103) = (   0.0625000   0.3125000  -0.5000000), wk =   0.0117188
        k(  104) = (   0.0625000   0.3125000  -0.4375000), wk =   0.0117188
        k(  105) = (   0.0625000   0.3125000  -0.3750000), wk =   0.0117188
        k(  106) = (   0.0625000   0.3125000  -0.3125000), wk =   0.0117188
        k(  107) = (   0.0625000   0.3125000  -0.2500000), wk =   0.0058594
        k(  108) = (   0.0625000   0.3750000   0.4375000), wk =   0.0058594
        k(  109) = (   0.0625000   0.3750000  -0.5000000), wk =   0.0117188
        k(  110) = (   0.0625000   0.3750000  -0.4375000), wk =   0.0117188
        k(  111) = (   0.0625000   0.3750000  -0.3750000), wk =   0.0117188
        k(  112) = (   0.0625000   0.3750000  -0.3125000), wk =   0.0058594
        k(  113) = (   0.0625000   0.4375000  -0.5000000), wk =   0.0058594
        k(  114) = (   0.0625000   0.4375000  -0.4375000), wk =   0.0117188
        k(  115) = (   0.0625000   0.4375000  -0.3750000), wk =   0.0058594
        k(  116) = (   0.0625000  -0.5000000  -0.4375000), wk =   0.0029297
        k(  117) = (   0.1250000   0.2500000   0.3750000), wk =   0.0058594
        k(  118) = (   0.1250000   0.2500000   0.4375000), wk =   0.0117188
        k(  119) = (   0.1250000   0.2500000  -0.5000000), wk =   0.0117188
        k(  120) = (   0.1250000   0.2500000  -0.4375000), wk =   0.0117188
        k(  121) = (   0.1250000   0.2500000  -0.3750000), wk =   0.0058594
        k(  122) = (   0.1250000   0.3125000   0.4375000), wk =   0.0058594
        k(  123) = (   0.1250000   0.3125000  -0.5000000), wk =   0.0117188
        k(  124) = (   0.1250000   0.3125000  -0.4375000), wk =   0.0117188
        k(  125) = (   0.1250000   0.3125000  -0.3750000), wk =   0.0117188
        k(  126) = (   0.1250000   0.3125000  -0.3125000), wk =   0.0117188
        k(  127) = (   0.1250000   0.3125000  -0.2500000), wk =   0.0117188
        k(  128) = (   0.1250000   0.3125000  -0.1875000), wk =   0.0058594
        k(  129) = (   0.1250000   0.3750000  -0.5000000), wk =   0.0058594
        k(  130) = (   0.1250000   0.3750000  -0.4375000), wk =   0.0117188
        k(  131) = (   0.1250000   0.3750000  -0.3750000), wk =   0.0117188
        k(  132) = (   0.1250000   0.3750000  -0.3125000), wk =   0.0117188
        k(  133) = (   0.1250000   0.3750000  -0.2500000), wk =   0.0058594
        k(  134) = (   0.1250000   0.4375000  -0.4375000), wk =   0.0058594
        k(  135) = (   0.1250000   0.4375000  -0.3750000), wk =   0.0117188
        k(  136) = (   0.1250000   0.4375000  -0.3125000), wk =   0.0058594
        k(  137) = (   0.1250000  -0.5000000  -0.3750000), wk =   0.0029297
        k(  138) = (   0.1875000   0.3750000  -0.4375000), wk =   0.0058594
        k(  139) = (   0.1875000   0.3750000  -0.3750000), wk =   0.0117188
        k(  140) = (   0.1875000   0.3750000  -0.3125000), wk =   0.0058594
        k(  141) = (   0.1875000   0.4375000  -0.3750000), wk =   0.0058594
        k(  142) = (   0.1875000   0.4375000  -0.3125000), wk =   0.0117188
        k(  143) = (   0.1875000   0.4375000  -0.2500000), wk =   0.0058594
        k(  144) = (   0.1875000  -0.5000000  -0.3125000), wk =   0.0029297
        k(  145) = (   0.2500000  -0.5000000  -0.2500000), wk =   0.0014648

     Dense  grid:    45767 G-vectors     FFT dimensions: (  50,  50,  50)

     Largest allocated arrays     est. size (Mb)     dimensions
        Kohn-Sham Wavefunctions         0.40 Mb     (     730,   36)
        NL pseudopotentials             0.38 Mb     (     365,   68)
        Each V/rho on FFT grid          0.15 Mb     (   10000)
        Each G-vector array             0.02 Mb     (    2862)
        G-vector shells                 0.00 Mb     (     395)
     Largest temporary arrays     est. size (Mb)     dimensions
        Auxiliary wavefunctions         1.60 Mb     (     730,  144)
        Each subspace H/S matrix        0.32 Mb     (     144,  144)
        Each <psi_i|beta_j> matrix      0.07 Mb     (      68,   2,   36)
        Arrays for rho mixing           1.22 Mb     (   10000,    8)

     Initial potential from superposition of free atoms

     starting charge   27.99781, renormalised to   28.00000
     Starting wfc are   36 randomized atomic wfcs
     Checking if some PAW data can be deallocated... 

     total cpu time spent up to now is       16.3 secs

     Self-consistent Calculation

     iteration #  1     ecut=    80.00 Ry     beta=0.70
     Davidson diagonalization with overlap
     ethr =  1.00E-02,  avg # of iterations =  3.5

     Threshold (ethr) on eigenvalues was too large:
     Diagonalizing with lowered threshold

     Davidson diagonalization with overlap
     ethr =  6.07E-05,  avg # of iterations =  3.4

     total cpu time spent up to now is      112.4 secs

     total energy              =    -885.87763651 Ry
     Harris-Foulkes estimate   =    -885.88023759 Ry
     estimated scf accuracy    <       0.02019313 Ry

     iteration #  2     ecut=    80.00 Ry     beta=0.70
     Davidson diagonalization with overlap
     ethr =  7.21E-05,  avg # of iterations =  1.0

     total cpu time spent up to now is      150.7 secs

     total energy              =    -885.87864189 Ry
     Harris-Foulkes estimate   =    -885.87876193 Ry
     estimated scf accuracy    <       0.00182649 Ry

     iteration #  3     ecut=    80.00 Ry     beta=0.70
     Davidson diagonalization with overlap
     ethr =  6.52E-06,  avg # of iterations =  2.2

     total cpu time spent up to now is      201.5 secs

     total energy              =    -885.87895202 Ry
     Harris-Foulkes estimate   =    -885.87900782 Ry
     estimated scf accuracy    <       0.00010329 Ry

     iteration #  4     ecut=    80.00 Ry     beta=0.70
     Davidson diagonalization with overlap
     ethr =  3.69E-07,  avg # of iterations =  2.1

     total cpu time spent up to now is      251.8 secs

     total energy              =    -885.87898627 Ry
     Harris-Foulkes estimate   =    -885.87898753 Ry
     estimated scf accuracy    <       0.00000853 Ry

     iteration #  5     ecut=    80.00 Ry     beta=0.70
     Davidson diagonalization with overlap
     ethr =  3.05E-08,  avg # of iterations =  2.0

     total cpu time spent up to now is      295.5 secs

     total energy              =    -885.87898850 Ry
     Harris-Foulkes estimate   =    -885.87898838 Ry
     estimated scf accuracy    <       0.00000115 Ry

     iteration #  6     ecut=    80.00 Ry     beta=0.70
     Davidson diagonalization with overlap
     ethr =  4.10E-09,  avg # of iterations =  2.0

     total cpu time spent up to now is      341.9 secs

     End of self-consistent calculation

          k = 0.0000 0.0000 0.0000 (  5769 PWs)   bands (ev):

   -14.5717 -14.5717 -14.5717 -14.5717 -14.4808 -14.4808 -14.4808 -14.4808
   -13.6592 -13.6592 -13.4629 -13.4629 -13.4629 -13.4629 -13.4159 -13.4159
   -13.4159 -13.4159 -13.3033 -13.3033  -2.8591  -2.8591   6.7424   6.7424
     7.1901   7.1901   7.8581   7.8581   7.8581   7.8581   9.3975   9.3975
     9.8698   9.8698   9.8698   9.8698

     occupation numbers 
     1.0000   1.0000   1.0000   1.0000   1.0000   1.0000   1.0000   1.0000
     1.0000   1.0000   1.0000   1.0000   1.0000   1.0000   1.0000   1.0000
     1.0000   1.0000   1.0000   1.0000   1.0000   1.0000   1.0000   1.0000
     1.0000   1.0000   0.0000   0.0000   0.0000   0.0000   0.0000   0.0000
     0.0000   0.0000   0.0000   0.0000

          k = 0.0442 0.0442-0.0442 (  5769 PWs)   bands (ev):

   -14.5722 -14.5722 -14.5709 -14.5709 -14.4817 -14.4817 -14.4802 -14.4802
   -13.6571 -13.6571 -13.4684 -13.4684 -13.4662 -13.4661 -13.4125 -13.4125
   -13.4114 -13.4114 -13.3044 -13.3044  -2.8223  -2.8223   6.1962   6.1962
     7.2650   7.2650   7.7761   7.7761   7.9917   7.9917   9.5707   9.5707
     9.9662   9.9662   9.9746   9.9746

     occupation numbers 
     1.0000   1.0000   1.0000   1.0000   1.0000   1.0000   1.0000   1.0000
     1.0000   1.0000   1.0000   1.0000   1.0000   1.0000   1.0000   1.0000
     1.0000   1.0000   1.0000   1.0000   1.0000   1.0000   1.0000   1.0000
     1.0000   1.0000   0.0000   0.0000   0.0000   0.0000   0.0000   0.0000
     0.0000   0.0000   0.0000   0.0000

          k = 0.0884 0.0884-0.0884 (  5763 PWs)   bands (ev):

   -14.5734 -14.5734 -14.5683 -14.5683 -14.4843 -14.4843 -14.4785 -14.4785
   -13.6509 -13.6509 -13.4808 -13.4808 -13.4736 -13.4736 -13.4044 -13.4043
   -13.4016 -13.4016 -13.3074 -13.3074  -2.7127  -2.7127   5.3261   5.3261
     7.1250   7.1250   7.5788   7.5788   8.0822   8.0822   9.9114   9.9114
    10.2282  10.2282  10.3864  10.3864

     occupation numbers 
     1.0000   1.0000   1.0000   1.0000   1.0000   1.0000   1.0000   1.0000
     1.0000   1.0000   1.0000   1.0000   1.0000   1.0000   1.0000   1.0000
     1.0000   1.0000   1.0000   1.0000   1.0000   1.0000   1.0000   1.0000
     1.0000   1.0000   1.0000   1.0000   0.0000   0.0000   0.0000   0.0000
     0.0000   0.0000   0.0000   0.0000

          k = 0.1326 0.1326-0.1326 (  5762 PWs)   bands (ev):

   -14.5752 -14.5751 -14.5641 -14.5641 -14.4884 -14.4884 -14.4760 -14.4760
   -13.6413 -13.6413 -13.4957 -13.4957 -13.4822 -13.4822 -13.3947 -13.3947
   -13.3908 -13.3908 -13.3122 -13.3122  -2.5332  -2.5332   4.4187   4.4187
     6.9065   6.9065   7.3443   7.3443   7.9999   7.9999  10.2062  10.2062
    10.5162  10.5162  11.1258  11.1258

     occupation numbers 
     1.0000   1.0000   1.0000   1.0000   1.0000   1.0000   1.0000   1.0000
     1.0000   1.0000   1.0000   1.0000   1.0000   1.0000   1.0000   1.0000
     1.0000   1.0000   1.0000   1.0000   1.0000   1.0000   1.0000   1.0000
     1.0000   1.0000   1.0000   1.0000   0.0000   0.0000   0.0000   0.0000
     0.0000   0.0000   0.0000   0.0000

          k = 0.1768 0.1768-0.1768 (  5738 PWs)   bands (ev):

   -14.5770 -14.5770 -14.5586 -14.5586 -14.4937 -14.4937 -14.4733 -14.4732
   -13.6291 -13.6291 -13.5112 -13.5112 -13.4904 -13.4904 -13.3853 -13.3853
   -13.3805 -13.3805 -13.3184 -13.3184  -2.2900  -2.2900   3.5431   3.5431
     6.6901   6.6901   7.1213   7.1213   7.8527   7.8527  10.4439  10.4439
    10.7421  10.7421  11.9840  11.9841

     occupation numbers 
     1.0000   1.0000   1.0000   1.0000   1.0000   1.0000   1.0000   1.0000
     1.0000   1.0000   1.0000   1.0000   1.0000   1.0000   1.0000   1.0000
     1.0000   1.0000   1.0000   1.0000   1.0000   1.0000   1.0000   1.0000
     1.0000   1.0000   1.0000   1.0000   0.0000   0.0000   0.0000   0.0000
     0.0000   0.0000   0.0000   0.0000

          k = 0.2210 0.2210-0.2210 (  5720 PWs)   bands (ev):

   -14.5787 -14.5787 -14.5522 -14.5522 -14.5000 -14.5000 -14.4707 -14.4707
   -13.6154 -13.6154 -13.5264 -13.5264 -13.4973 -13.4973 -13.3772 -13.3772
   -13.3713 -13.3713 -13.3255 -13.3255  -1.9965  -1.9965   2.7399   2.7399
     6.5063   6.5063   6.9342   6.9342   7.7079   7.7079  10.5907  10.5907
    10.8610  10.8610  12.8717  12.8717

     occupation numbers 
     1.0000   1.0000   1.0000   1.0000   1.0000   1.0000   1.0000   1.0000
     1.0000   1.0000   1.0000   1.0000   1.0000   1.0000   1.0000   1.0000
     1.0000   1.0000   1.0000   1.0000   1.0000   1.0000   1.0000   1.0000
     1.0000   1.0000   1.0000   1.0000   0.0000   0.0000   0.0000   0.0000
     0.0000   0.0000   0.0000   0.0000

          k = 0.2652 0.2652-0.2652 (  5720 PWs)   bands (ev):

   -14.5800 -14.5800 -14.5454 -14.5454 -14.5066 -14.5066 -14.4686 -14.4686
   -13.6011 -13.6011 -13.5409 -13.5409 -13.5025 -13.5025 -13.3710 -13.3710
   -13.3631 -13.3631 -13.3330 -13.3330  -1.6815  -1.6815   2.0528   2.0528
     6.3686   6.3686   6.7949   6.7949   7.5939   7.5939  10.6528  10.6528
    10.8932  10.8932  13.3556  13.3556

     occupation numbers 
     1.0000   1.0000   1.0000   1.0000   1.0000   1.0000   1.0000   1.0000
     1.0000   1.0000   1.0000   1.0000   1.0000   1.0000   1.0000   1.0000
     1.0000   1.0000   1.0000   1.0000   1.0000   1.0000   1.0000   1.0000
     1.0000   1.0000   1.0000   1.0000   1.0000   1.0000   0.0000   0.0000
     0.0000   0.0000   0.0000   0.0000

          k = 0.3094 0.3094-0.3094 (  5699 PWs)   bands (ev):

   -14.5808 -14.5808 -14.5391 -14.5391 -14.5128 -14.5128 -14.4673 -14.4673
   -13.5874 -13.5874 -13.5542 -13.5542 -13.5057 -13.5057 -13.3671 -13.3671
   -13.3557 -13.3557 -13.3402 -13.3402  -1.4087  -1.4087   1.5539   1.5539
     6.2839   6.2839   6.7094   6.7094   7.5225   7.5225  10.6679  10.6679
    10.8880  10.8880  13.3029  13.3029

     occupation numbers 
     1.0000   1.0000   1.0000   1.0000   1.0000   1.0000   1.0000   1.0000
     1.0000   1.0000   1.0000   1.0000   1.0000   1.0000   1.0000   1.0000
     1.0000   1.0000   1.0000   1.0000   1.0000   1.0000   1.0000   1.0000
     1.0000   1.0000   1.0000   1.0000   1.0000   1.0000   0.0000   0.0000
     0.0000   0.0000   0.0000   0.0000

          k =-0.3536-0.3536 0.3536 (  5696 PWs)   bands (ev):

   -14.5811 -14.5811 -14.5361 -14.5361 -14.5157 -14.5157 -14.4668 -14.4668
   -13.5791 -13.5791 -13.5624 -13.5624 -13.5067 -13.5067 -13.3658 -13.3658
   -13.3505 -13.3505 -13.3455 -13.3455  -1.2923  -1.2923   1.3616   1.3616
     6.2553   6.2553   6.6806   6.6806   7.4983   7.4983  10.6689  10.6689
    10.8822  10.8822  13.2696  13.2696

     occupation numbers 
     1.0000   1.0000   1.0000   1.0000   1.0000   1.0000   1.0000   1.0000
     1.0000   1.0000   1.0000   1.0000   1.0000   1.0000   1.0000   1.0000
     1.0000   1.0000   1.0000   1.0000   1.0000   1.0000   1.0000   1.0000
     1.0000   1.0000   1.0000   1.0000   1.0000   1.0000   0.0000   0.0000
     0.0000   0.0000   0.0000   0.0000

          k = 0.0884 0.0000 0.0000 (  5749 PWs)   bands (ev):

   -14.5719 -14.5719 -14.5710 -14.5710 -14.4817 -14.4817 -14.4803 -14.4803
   -13.6564 -13.6564 -13.4713 -13.4713 -13.4657 -13.4657 -13.4120 -13.4120
   -13.4096 -13.4096 -13.3047 -13.3047  -2.8100  -2.8100   6.1130   6.1130
     7.1790   7.1790   7.5781   7.5781   8.2858   8.2858   9.4715   9.4715
     9.9845   9.9845  10.1211  10.1211

     occupation numbers 
     1.0000   1.0000   1.0000   1.0000   1.0000   1.0000   1.0000   1.0000
     1.0000   1.0000   1.0000   1.0000   1.0000   1.0000   1.0000   1.0000
     1.0000   1.0000   1.0000   1.0000   1.0000   1.0000   1.0000   1.0000
     1.0000   1.0000   1.0000   1.0000   0.0000   0.0000   0.0000   0.0000
     0.0000   0.0000   0.0000   0.0000

          k = 0.1326 0.0442-0.0442 (  5761 PWs)   bands (ev):

   -14.5728 -14.5728 -14.5691 -14.5691 -14.4837 -14.4837 -14.4790 -14.4790
   -13.6516 -13.6516 -13.4813 -13.4813 -13.4708 -13.4708 -13.4064 -13.4064
   -13.4017 -13.4017 -13.3070 -13.3070  -2.7244  -2.7244   5.4704   5.4704
     7.0152   7.0152   7.3592   7.3592   8.5207   8.5207   9.5405   9.5405
    10.3002  10.3002  10.4568  10.4568

     occupation numbers 
     1.0000   1.0000   1.0000   1.0000   1.0000   1.0000   1.0000   1.0000
     1.0000   1.0000   1.0000   1.0000   1.0000   1.0000   1.0000   1.0000
     1.0000   1.0000   1.0000   1.0000   1.0000   1.0000   1.0000   1.0000
     1.0000   1.0000   1.0000   1.0000   0.0000   0.0000   0.0000   0.0000
     0.0000   0.0000   0.0000   0.0000

          k = 0.1768 0.0884-0.0884 (  5764 PWs)   bands (ev):

   -14.5744 -14.5744 -14.5654 -14.5654 -14.4873 -14.4873 -14.4767 -14.4766
   -13.6431 -13.6431 -13.4947 -13.4947 -13.4786 -13.4786 -13.3992 -13.3992
   -13.3908 -13.3908 -13.3110 -13.3110  -2.5678  -2.5678   4.6391   4.6391
     6.7899   6.7899   7.1328   7.1328   8.5035   8.5035   9.7995   9.7995
    10.6454  10.6454  11.0333  11.0333

     occupation numbers 
     1.0000   1.0000   1.0000   1.0000   1.0000   1.0000   1.0000   1.0000
     1.0000   1.0000   1.0000   1.0000   1.0000   1.0000   1.0000   1.0000
     1.0000   1.0000   1.0000   1.0000   1.0000   1.0000   1.0000   1.0000
     1.0000   1.0000   1.0000   1.0000   0.0000   0.0000   0.0000   0.0000
     0.0000   0.0000   0.0000   0.0000

          k = 0.2210 0.1326-0.1326 (  5749 PWs)   bands (ev):

   -14.5763 -14.5763 -14.5604 -14.5604 -14.4923 -14.4923 -14.4739 -14.4739
   -13.6318 -13.6318 -13.5091 -13.5091 -13.4867 -13.4867 -13.3921 -13.3920
   -13.3795 -13.3795 -13.3163 -13.3163  -2.3449  -2.3449   3.7841   3.7841
     6.5603   6.5603   6.9030   6.9030   8.3698   8.3698  10.1164  10.1164
    10.9045  10.9045  11.7102  11.7102

     occupation numbers 
     1.0000   1.0000   1.0000   1.0000   1.0000   1.0000   1.0000   1.0000
     1.0000   1.0000   1.0000   1.0000   1.0000   1.0000   1.0000   1.0000
     1.0000   1.0000   1.0000   1.0000   1.0000   1.0000   1.0000   1.0000
     1.0000   1.0000   1.0000   1.0000   0.0000   0.0000   0.0000   0.0000
     0.0000   0.0000   0.0000   0.0000

          k = 0.2652 0.1768-0.1768 (  5741 PWs)   bands (ev):

   -14.5781 -14.5781 -14.5543 -14.5543 -14.4982 -14.4982 -14.4712 -14.4711
   -13.6186 -13.6186 -13.5234 -13.5234 -13.4941 -13.4941 -13.3858 -13.3858
   -13.3693 -13.3693 -13.3223 -13.3223  -2.0660  -2.0660   2.9724   2.9724
     6.3564   6.3564   6.7046   6.7046   8.2150   8.2150  10.3713  10.3713
    11.0376  11.0376  12.3946  12.3946

     occupation numbers 
     1.0000   1.0000   1.0000   1.0000   1.0000   1.0000   1.0000   1.0000
     1.0000   1.0000   1.0000   1.0000   1.0000   1.0000   1.0000   1.0000
     1.0000   1.0000   1.0000   1.0000   1.0000   1.0000   1.0000   1.0000
     1.0000   1.0000   1.0000   1.0000   0.0000   0.0000   0.0000   0.0000
     0.0000   0.0000   0.0000   0.0000

          k = 0.3094 0.2210-0.2210 (  5734 PWs)   bands (ev):

   -14.5796 -14.5796 -14.5476 -14.5476 -14.5048 -14.5048 -14.4688 -14.4688
   -13.6047 -13.6047 -13.5371 -13.5371 -13.5000 -13.5000 -13.3808 -13.3808
   -13.3608 -13.3608 -13.3283 -13.3283  -1.7532  -1.7532   2.2520   2.2520
     6.1896   6.1896   6.5603   6.5603   8.0804   8.0804  10.5212  10.5212
    11.0561  11.0561  13.0312  13.0312

     occupation numbers 
     1.0000   1.0000   1.0000   1.0000   1.0000   1.0000   1.0000   1.0000
     1.0000   1.0000   1.0000   1.0000   1.0000   1.0000   1.0000   1.0000
     1.0000   1.0000   1.0000   1.0000   1.0000   1.0000   1.0000   1.0000
     1.0000   1.0000   1.0000   1.0000   0.0000   0.0000   0.0000   0.0000
     0.0000   0.0000   0.0000   0.0000

          k = 0.3536 0.2652-0.2652 (  5706 PWs)   bands (ev):

   -14.5806 -14.5806 -14.5411 -14.5410 -14.5113 -14.5112 -14.4672 -14.4672
   -13.5913 -13.5913 -13.5498 -13.5498 -13.5040 -13.5040 -13.3774 -13.3774
   -13.3546 -13.3546 -13.3335 -13.3335  -1.4554  -1.4554   1.6852   1.6852
     6.0662   6.0662   6.4802   6.4802   7.9836   7.9836  10.5987  10.5987
    11.0121  11.0121  13.3654  13.3654

     occupation numbers 
     1.0000   1.0000   1.0000   1.0000   1.0000   1.0000   1.0000   1.0000
     1.0000   1.0000   1.0000   1.0000   1.0000   1.0000   1.0000   1.0000
     1.0000   1.0000   1.0000   1.0000   1.0000   1.0000   1.0000   1.0000
     1.0000   1.0000   1.0000   1.0000   0.0000   0.0000   0.0000   0.0000
     0.0000   0.0000   0.0000   0.0000

          k =-0.3094-0.3977 0.3977 (  5707 PWs)   bands (ev):

   -14.5811 -14.5811 -14.5365 -14.5365 -14.5158 -14.5157 -14.4664 -14.4664
   -13.5809 -13.5809 -13.5596 -13.5596 -13.5059 -13.5059 -13.3759 -13.3759
   -13.3510 -13.3510 -13.3366 -13.3366  -1.2721  -1.2721   1.3786   1.3786
     5.9919   5.9919   6.4667   6.4667   7.9321   7.9321  10.6496  10.6496
    10.9538  10.9538  13.4194  13.4194

     occupation numbers 
     1.0000   1.0000   1.0000   1.0000   1.0000   1.0000   1.0000   1.0000
     1.0000   1.0000   1.0000   1.0000   1.0000   1.0000   1.0000   1.0000
     1.0000   1.0000   1.0000   1.0000   1.0000   1.0000   1.0000   1.0000
     1.0000   1.0000   1.0000   1.0000   0.0000   0.0000   0.0000   0.0000
     0.0000   0.0000   0.0000   0.0000

          k =-0.2652-0.3536 0.3536 (  5711 PWs)   bands (ev):

   -14.5810 -14.5810 -14.5375 -14.5375 -14.5148 -14.5147 -14.4665 -14.4665
   -13.5836 -13.5836 -13.5570 -13.5570 -13.5055 -13.5055 -13.3765 -13.3765
   -13.3513 -13.3513 -13.3361 -13.3361  -1.3126  -1.3126   1.4441   1.4441
     5.9715   5.9716   6.5175   6.5175   7.9285   7.9285  10.6900  10.6900
    10.9118  10.9118  13.4363  13.4363

     occupation numbers 
     1.0000   1.0000   1.0000   1.0000   1.0000   1.0000   1.0000   1.0000
     1.0000   1.0000   1.0000   1.0000   1.0000   1.0000   1.0000   1.0000
     1.0000   1.0000   1.0000   1.0000   1.0000   1.0000   1.0000   1.0000
     1.0000   1.0000   1.0000   1.0000   0.0000   0.0000   0.0000   0.0000
     0.0000   0.0000   0.0000   0.0000

          k =-0.2210-0.3094 0.3094 (  5720 PWs)   bands (ev):

   -14.5804 -14.5804 -14.5430 -14.5430 -14.5094 -14.5094 -14.4675 -14.4675
   -13.5957 -13.5957 -13.5457 -13.5457 -13.5028 -13.5028 -13.3791 -13.3791
   -13.3555 -13.3555 -13.3321 -13.3321  -1.5486  -1.5486   1.8528   1.8528
     6.0092   6.0092   6.6282   6.6282   7.9724   7.9724  10.6940  10.6940
    10.9054  10.9054  13.3907  13.3907

     occupation numbers 
     1.0000   1.0000   1.0000   1.0000   1.0000   1.0000   1.0000   1.0000
     1.0000   1.0000   1.0000   1.0000   1.0000   1.0000   1.0000   1.0000
     1.0000   1.0000   1.0000   1.0000   1.0000   1.0000   1.0000   1.0000
     1.0000   1.0000   1.0000   1.0000   0.0000   0.0000   0.0000   0.0000
     0.0000   0.0000   0.0000   0.0000

          k =-0.1768-0.2652 0.2652 (  5733 PWs)   bands (ev):

   -14.5792 -14.5792 -14.5497 -14.5497 -14.5028 -14.5028 -14.4694 -14.4694
   -13.6094 -13.6094 -13.5327 -13.5327 -13.4980 -13.4980 -13.3833 -13.3833
   -13.3623 -13.3623 -13.3266 -13.3266  -1.8596  -1.8596   2.4799   2.4799
     6.1074   6.1074   6.7915   6.7915   8.0595   8.0595  10.6251  10.6251
    10.9096  10.9096  12.9298  12.9298

     occupation numbers 
     1.0000   1.0000   1.0000   1.0000   1.0000   1.0000   1.0000   1.0000
     1.0000   1.0000   1.0000   1.0000   1.0000   1.0000   1.0000   1.0000
     1.0000   1.0000   1.0000   1.0000   1.0000   1.0000   1.0000   1.0000
     1.0000   1.0000   1.0000   1.0000   0.0000   0.0000   0.0000   0.0000
     0.0000   0.0000   0.0000   0.0000

          k =-0.1326-0.2210 0.2210 (  5741 PWs)   bands (ev):

   -14.5777 -14.5776 -14.5562 -14.5562 -14.4964 -14.4964 -14.4719 -14.4719
   -13.6232 -13.6232 -13.5187 -13.5187 -13.4915 -13.4915 -13.3890 -13.3890
   -13.3713 -13.3712 -13.3204 -13.3204  -2.1647  -2.1647   3.2352   3.2352
     6.2671   6.2671   6.9970   6.9970   8.1787   8.1787  10.4692  10.4692
    10.8316  10.8317  12.2014  12.2014

     occupation numbers 
     1.0000   1.0000   1.0000   1.0000   1.0000   1.0000   1.0000   1.0000
     1.0000   1.0000   1.0000   1.0000   1.0000   1.0000   1.0000   1.0000
     1.0000   1.0000   1.0000   1.0000   1.0000   1.0000   1.0000   1.0000
     1.0000   1.0000   1.0000   1.0000   0.0000   0.0000   0.0000   0.0000
     0.0000   0.0000   0.0000   0.0000

          k =-0.0884-0.1768 0.1768 (  5758 PWs)   bands (ev):

   -14.5758 -14.5758 -14.5620 -14.5620 -14.4907 -14.4907 -14.4747 -14.4746
   -13.6359 -13.6359 -13.5042 -13.5042 -13.4839 -13.4839 -13.3956 -13.3956
   -13.3819 -13.3819 -13.3145 -13.3145  -2.4265  -2.4265   4.0632   4.0632
     6.4874   6.4874   7.2263   7.2263   8.3026   8.3026  10.2310  10.2310
    10.5844  10.5844  11.5198  11.5198

     occupation numbers 
     1.0000   1.0000   1.0000   1.0000   1.0000   1.0000   1.0000   1.0000
     1.0000   1.0000   1.0000   1.0000   1.0000   1.0000   1.0000   1.0000
     1.0000   1.0000   1.0000   1.0000   1.0000   1.0000   1.0000   1.0000
     1.0000   1.0000   1.0000   1.0000   0.0000   0.0000   0.0000   0.0000
     0.0000   0.0000   0.0000   0.0000

          k =-0.0442-0.1326 0.1326 (  5762 PWs)   bands (ev):

   -14.5741 -14.5741 -14.5665 -14.5665 -14.4862 -14.4862 -14.4773 -14.4773
   -13.6463 -13.6463 -13.4898 -13.4898 -13.4761 -13.4761 -13.4027 -13.4027
   -13.3934 -13.3934 -13.3096 -13.3096  -2.6279  -2.6279   4.9104   4.9104
     6.7646   6.7646   7.4476   7.4476   8.3658   8.3658   9.9566   9.9566
    10.2228  10.2228  10.9096  10.9096

     occupation numbers 
     1.0000   1.0000   1.0000   1.0000   1.0000   1.0000   1.0000   1.0000
     1.0000   1.0000   1.0000   1.0000   1.0000   1.0000   1.0000   1.0000
     1.0000   1.0000   1.0000   1.0000   1.0000   1.0000   1.0000   1.0000
     1.0000   1.0000   1.0000   1.0000   0.0000   0.0000   0.0000   0.0000
     0.0000   0.0000   0.0000   0.0000

          k = 0.0000-0.0884 0.0884 (  5745 PWs)   bands (ev):

   -14.5728 -14.5727 -14.5696 -14.5696 -14.4831 -14.4831 -14.4793 -14.4793
   -13.6536 -13.6536 -13.4768 -13.4767 -13.4695 -13.4694 -13.4089 -13.4089
   -13.4044 -13.4044 -13.3061 -13.3061  -2.7611  -2.7611   5.6866   5.6866
     7.0780   7.0780   7.6200   7.6200   8.2490   8.2491   9.7087   9.7087
     9.9848   9.9848  10.3559  10.3559

     occupation numbers 
     1.0000   1.0000   1.0000   1.0000   1.0000   1.0000   1.0000   1.0000
     1.0000   1.0000   1.0000   1.0000   1.0000   1.0000   1.0000   1.0000
     1.0000   1.0000   1.0000   1.0000   1.0000   1.0000   1.0000   1.0000
     1.0000   1.0000   0.0834   0.0832   0.0000   0.0000   0.0000   0.0000
     0.0000   0.0000   0.0000   0.0000

          k = 0.1768 0.0000 0.0000 (  5765 PWs)   bands (ev):

   -14.5723 -14.5723 -14.5689 -14.5689 -14.4842 -14.4842 -14.4788 -14.4788
   -13.6481 -13.6481 -13.4885 -13.4885 -13.4723 -13.4723 -13.4021 -13.4021
   -13.3989 -13.3989 -13.3082 -13.3082  -2.6629  -2.6629   5.2142   5.2142
     6.8029   6.8029   7.0520   7.0520   9.0347   9.0347   9.2083   9.2083
    10.6229  10.6229  10.7186  10.7186

     occupation numbers 
     1.0000   1.0000   1.0000   1.0000   1.0000   1.0000   1.0000   1.0000
     1.0000   1.0000   1.0000   1.0000   1.0000   1.0000   1.0000   1.0000
     1.0000   1.0000   1.0000   1.0000   1.0000   1.0000   1.0000   1.0000
     1.0000   1.0000   1.0000   1.0000   0.0000   0.0000   0.0000   0.0000
     0.0000   0.0000   0.0000   0.0000

          k = 0.2210 0.0442-0.0442 (  5765 PWs)   bands (ev):

   -14.5733 -14.5733 -14.5663 -14.5663 -14.4868 -14.4868 -14.4772 -14.4772
   -13.6410 -13.6410 -13.4993 -13.4993 -13.4774 -13.4774 -13.3979 -13.3979
   -13.3903 -13.3903 -13.3110 -13.3110  -2.5295  -2.5295   4.6220   4.6220
     6.5643   6.5643   6.7994   6.7994   9.1016   9.1017   9.3155   9.3155
    11.0125  11.0125  11.1470  11.1470

     occupation numbers 
     1.0000   1.0000   1.0000   1.0000   1.0000   1.0000   1.0000   1.0000
     1.0000   1.0000   1.0000   1.0000   1.0000   1.0000   1.0000   1.0000
     1.0000   1.0000   1.0000   1.0000   1.0000   1.0000   1.0000   1.0000
     1.0000   1.0000   1.0000   1.0000   0.0000   0.0000   0.0000   0.0000
     0.0000   0.0000   0.0000   0.0000

          k = 0.2652 0.0884-0.0884 (  5753 PWs)   bands (ev):

   -14.5751 -14.5751 -14.5618 -14.5618 -14.4912 -14.4912 -14.4745 -14.4745
   -13.6308 -13.6308 -13.5117 -13.5117 -13.4838 -13.4838 -13.3952 -13.3952
   -13.3789 -13.3788 -13.3148 -13.3148  -2.3279  -2.3279   3.8860   3.8860
     6.3003   6.3003   6.5672   6.5672   9.0308   9.0309   9.5961   9.5961
    11.3157  11.3157  11.5728  11.5728

     occupation numbers 
     1.0000   1.0000   1.0000   1.0000   1.0000   1.0000   1.0000   1.0000
     1.0000   1.0000   1.0000   1.0000   1.0000   1.0000   1.0000   1.0000
     1.0000   1.0000   1.0000   1.0000   1.0000   1.0000   1.0000   1.0000
     1.0000   1.0000   1.0000   1.0000   0.0000   0.0000   0.0000   0.0000
     0.0000   0.0000   0.0000   0.0000

          k = 0.3094 0.1326-0.1326 (  5749 PWs)   bands (ev):

   -14.5771 -14.5770 -14.5562 -14.5562 -14.4968 -14.4968 -14.4716 -14.4716
   -13.6187 -13.6187 -13.5242 -13.5242 -13.4904 -13.4903 -13.3932 -13.3932
   -13.3681 -13.3681 -13.3188 -13.3188  -2.0660  -2.0660   3.1266   3.1266
     6.0357   6.0357   6.3793   6.3793   8.8918   8.8918   9.9692   9.9692
    11.4822  11.4822  11.8630  11.8630

     occupation numbers 
     1.0000   1.0000   1.0000   1.0000   1.0000   1.0000   1.0000   1.0000
     1.0000   1.0000   1.0000   1.0000   1.0000   1.0000   1.0000   1.0000
     1.0000   1.0000   1.0000   1.0000   1.0000   1.0000   1.0000   1.0000
     1.0000   1.0000   1.0000   1.0000   0.0000   0.0000   0.0000   0.0000
     0.0000   0.0000   0.0000   0.0000

          k = 0.3536 0.1768-0.1768 (  5747 PWs)   bands (ev):

   -14.5787 -14.5787 -14.5499 -14.5499 -14.5032 -14.5031 -14.4689 -14.4689
   -13.6057 -13.6057 -13.5359 -13.5359 -13.4963 -13.4962 -13.3921 -13.3921
   -13.3596 -13.3596 -13.3221 -13.3221  -1.7603  -1.7603   2.4138   2.4138
     5.7940   5.7940   6.2582   6.2582   8.7467   8.7467  10.2815  10.2815
    11.5064  11.5064  12.2174  12.2174

     occupation numbers 
     1.0000   1.0000   1.0000   1.0000   1.0000   1.0000   1.0000   1.0000
     1.0000   1.0000   1.0000   1.0000   1.0000   1.0000   1.0000   1.0000
     1.0000   1.0000   1.0000   1.0000   1.0000   1.0000   1.0000   1.0000
     1.0000   1.0000   1.0000   1.0000   0.0000   0.0000   0.0000   0.0000
     0.0000   0.0000   0.0000   0.0000

          k = 0.3977 0.2210-0.2210 (  5721 PWs)   bands (ev):

   -14.5800 -14.5800 -14.5435 -14.5435 -14.5096 -14.5096 -14.4667 -14.4667
   -13.5934 -13.5934 -13.5462 -13.5462 -13.5009 -13.5009 -13.3918 -13.3918
   -13.3541 -13.3541 -13.3240 -13.3239  -1.4480  -1.4480   1.8116   1.8116
     5.5951   5.5951   6.2073   6.2073   8.6290   8.6290  10.4643  10.4643
    11.4368  11.4368  12.7534  12.7534

     occupation numbers 
     1.0000   1.0000   1.0000   1.0000   1.0000   1.0000   1.0000   1.0000
     1.0000   1.0000   1.0000   1.0000   1.0000   1.0000   1.0000   1.0000
     1.0000   1.0000   1.0000   1.0000   1.0000   1.0000   1.0000   1.0000
     1.0000   1.0000   1.0000   1.0000   0.0000   0.0000   0.0000   0.0000
     0.0000   0.0000   0.0000   0.0000

          k =-0.2652-0.4419 0.4419 (  5720 PWs)   bands (ev):

   -14.5808 -14.5808 -14.5382 -14.5381 -14.5151 -14.5150 -14.4654 -14.4654
   -13.5839 -13.5839 -13.5542 -13.5541 -13.5036 -13.5036 -13.3922 -13.3922
   -13.3513 -13.3513 -13.3245 -13.3245  -1.2106  -1.2106   1.4156   1.4156
     5.4518   5.4518   6.2249   6.2249   8.5527   8.5528  10.5721  10.5721
    11.3268  11.3268  13.3333  13.3333

     occupation numbers 
     1.0000   1.0000   1.0000   1.0000   1.0000   1.0000   1.0000   1.0000
     1.0000   1.0000   1.0000   1.0000   1.0000   1.0000   1.0000   1.0000
     1.0000   1.0000   1.0000   1.0000   1.0000   1.0000   1.0000   1.0000
     1.0000   1.0000   1.0000   1.0000   0.0000   0.0000   0.0000   0.0000
     0.0000   0.0000   0.0000   0.0000

          k =-0.2210-0.3977 0.3977 (  5716 PWs)   bands (ev):

   -14.5810 -14.5810 -14.5367 -14.5366 -14.5166 -14.5165 -14.4650 -14.4650
   -13.5823 -13.5823 -13.5556 -13.5556 -13.5037 -13.5037 -13.3930 -13.3930
   -13.3503 -13.3503 -13.3247 -13.3247  -1.1717  -1.1717   1.3553   1.3553
     5.3722   5.3722   6.3075   6.3075   8.5226   8.5226  10.6668  10.6668
    11.2074  11.2074  13.6411  13.6411

     occupation numbers 
     1.0000   1.0000   1.0000   1.0000   1.0000   1.0000   1.0000   1.0000
     1.0000   1.0000   1.0000   1.0000   1.0000   1.0000   1.0000   1.0000
     1.0000   1.0000   1.0000   1.0000   1.0000   1.0000   1.0000   1.0000
     1.0000   1.0000   1.0000   1.0000   0.0000   0.0000   0.0000   0.0000
     0.0000   0.0000   0.0000   0.0000

          k =-0.1768-0.3536 0.3536 (  5722 PWs)   bands (ev):

   -14.5807 -14.5807 -14.5405 -14.5404 -14.5129 -14.5128 -14.4657 -14.4657
   -13.5901 -13.5901 -13.5491 -13.5491 -13.5012 -13.5012 -13.3940 -13.3940
   -13.3509 -13.3509 -13.3248 -13.3247  -1.3592  -1.3592   1.6587   1.6587
     5.3633   5.3633   6.4493   6.4493   8.5376   8.5376  10.7658  10.7658
    11.0858  11.0858  13.4322  13.4322

     occupation numbers 
     1.0000   1.0000   1.0000   1.0000   1.0000   1.0000   1.0000   1.0000
     1.0000   1.0000   1.0000   1.0000   1.0000   1.0000   1.0000   1.0000
     1.0000   1.0000   1.0000   1.0000   1.0000   1.0000   1.0000   1.0000
     1.0000   1.0000   1.0000   1.0000   0.0000   0.0000   0.0000   0.0000
     0.0000   0.0000   0.0000   0.0000

          k =-0.1326-0.3094 0.3094 (  5721 PWs)   bands (ev):

   -14.5798 -14.5798 -14.5465 -14.5465 -14.5069 -14.5068 -14.4673 -14.4672
   -13.6019 -13.6019 -13.5395 -13.5395 -13.4968 -13.4967 -13.3953 -13.3953
   -13.3541 -13.3541 -13.3237 -13.3237  -1.6593  -1.6593   2.2061   2.2061
     5.4323   5.4323   6.6413   6.6413   8.5904   8.5904  10.8115  10.8115
    10.9788  10.9788  12.7861  12.7862

     occupation numbers 
     1.0000   1.0000   1.0000   1.0000   1.0000   1.0000   1.0000   1.0000
     1.0000   1.0000   1.0000   1.0000   1.0000   1.0000   1.0000   1.0000
     1.0000   1.0000   1.0000   1.0000   1.0000   1.0000   1.0000   1.0000
     1.0000   1.0000   1.0000   1.0000   0.0000   0.0000   0.0000   0.0000
     0.0000   0.0000   0.0000   0.0000

          k =-0.0884-0.2652 0.2652 (  5739 PWs)   bands (ev):

   -14.5785 -14.5785 -14.5528 -14.5528 -14.5005 -14.5005 -14.4696 -14.4696
   -13.6148 -13.6148 -13.5283 -13.5283 -13.4911 -13.4911 -13.3969 -13.3969
   -13.3608 -13.3607 -13.3210 -13.3210  -1.9724  -1.9724   2.8829   2.8829
     5.5896   5.5896   6.8689   6.8689   8.6628   8.6628  10.6579  10.6579
    10.9134  10.9134  12.1515  12.1515

     occupation numbers 
     1.0000   1.0000   1.0000   1.0000   1.0000   1.0000   1.0000   1.0000
     1.0000   1.0000   1.0000   1.0000   1.0000   1.0000   1.0000   1.0000
     1.0000   1.0000   1.0000   1.0000   1.0000   1.0000   1.0000   1.0000
     1.0000   1.0000   1.0000   1.0000   0.0000   0.0000   0.0000   0.0000
     0.0000   0.0000   0.0000   0.0000

          k =-0.0442-0.2210 0.2210 (  5751 PWs)   bands (ev):

   -14.5769 -14.5769 -14.5586 -14.5586 -14.4946 -14.4946 -14.4724 -14.4723
   -13.6273 -13.6273 -13.5158 -13.5157 -13.4852 -13.4852 -13.3989 -13.3989
   -13.3704 -13.3704 -13.3171 -13.3171  -2.2504  -2.2504   3.6110   3.6110
     5.8521   5.8521   7.1073   7.1073   8.7110   8.7110  10.3998  10.3998
    10.6601  10.6601  11.7571  11.7571

     occupation numbers 
     1.0000   1.0000   1.0000   1.0000   1.0000   1.0000   1.0000   1.0000
     1.0000   1.0000   1.0000   1.0000   1.0000   1.0000   1.0000   1.0000
     1.0000   1.0000   1.0000   1.0000   1.0000   1.0000   1.0000   1.0000
     1.0000   1.0000   1.0000   1.0000   0.0000   0.0000   0.0000   0.0000
     0.0000   0.0000   0.0000   0.0000

          k = 0.0000-0.1768 0.1768 (  5765 PWs)   bands (ev):

   -14.5753 -14.5753 -14.5633 -14.5633 -14.4897 -14.4897 -14.4751 -14.4751
   -13.6382 -13.6382 -13.5025 -13.5025 -13.4799 -13.4799 -13.4010 -13.4009
   -13.3819 -13.3819 -13.3130 -13.3130  -2.4723  -2.4723   4.3149   4.3149
     6.2452   6.2452   7.3154   7.3154   8.6405   8.6405  10.1343  10.1343
    10.3386  10.3386  11.4261  11.4261

     occupation numbers 
     1.0000   1.0000   1.0000   1.0000   1.0000   1.0000   1.0000   1.0000
     1.0000   1.0000   1.0000   1.0000   1.0000   1.0000   1.0000   1.0000
     1.0000   1.0000   1.0000   1.0000   1.0000   1.0000   1.0000   1.0000
     1.0000   1.0000   1.0000   1.0000   0.0000   0.0000   0.0000   0.0000
     0.0000   0.0000   0.0000   0.0000

          k = 0.2652 0.0000 0.0000 (  5753 PWs)   bands (ev):

   -14.5726 -14.5726 -14.5660 -14.5660 -14.4875 -14.4875 -14.4770 -14.4770
   -13.6352 -13.6352 -13.5073 -13.5073 -13.4800 -13.4800 -13.3922 -13.3922
   -13.3889 -13.3889 -13.3123 -13.3123  -2.4191  -2.4191   4.2992   4.2992
     6.3556   6.3556   6.5241   6.5241   8.8626   8.8626   9.5889   9.5889
    11.4452  11.4452  11.4667  11.4667

     occupation numbers 
     1.0000   1.0000   1.0000   1.0000   1.0000   1.0000   1.0000   1.0000
     1.0000   1.0000   1.0000   1.0000   1.0000   1.0000   1.0000   1.0000
     1.0000   1.0000   1.0000   1.0000   1.0000   1.0000   1.0000   1.0000
     1.0000   1.0000   1.0000   1.0000   0.0000   0.0000   0.0000   0.0000
     0.0000   0.0000   0.0000   0.0000

          k = 0.3094 0.0442-0.0442 (  5740 PWs)   bands (ev):

   -14.5735 -14.5735 -14.5630 -14.5630 -14.4904 -14.4904 -14.4754 -14.4754
   -13.6264 -13.6264 -13.5173 -13.5173 -13.4844 -13.4844 -13.3935 -13.3935
   -13.3786 -13.3786 -13.3143 -13.3143  -2.2392  -2.2392   3.7568   3.7568
     6.1065   6.1065   6.2869   6.2869   8.8490   8.8490   9.6659   9.6659
    11.7634  11.7634  11.8322  11.8322

     occupation numbers 
     1.0000   1.0000   1.0000   1.0000   1.0000   1.0000   1.0000   1.0000
     1.0000   1.0000   1.0000   1.0000   1.0000   1.0000   1.0000   1.0000
     1.0000   1.0000   1.0000   1.0000   1.0000   1.0000   1.0000   1.0000
     1.0000   1.0000   1.0000   1.0000   0.0000   0.0000   0.0000   0.0000
     0.0000   0.0000   0.0000   0.0000

          k = 0.3536 0.0884-0.0884 (  5738 PWs)   bands (ev):

   -14.5753 -14.5753 -14.5583 -14.5583 -14.4951 -14.4951 -14.4727 -14.4727
   -13.6155 -13.6155 -13.5277 -13.5277 -13.4890 -13.4890 -13.3966 -13.3966
   -13.3677 -13.3677 -13.3163 -13.3163  -1.9958  -1.9958   3.1182   3.1182
     5.7983   5.7983   6.0985   6.0985   8.9720   8.9720   9.7782   9.7782
    11.7880  11.7880  12.0643  12.0643

     occupation numbers 
     1.0000   1.0000   1.0000   1.0000   1.0000   1.0000   1.0000   1.0000
     1.0000   1.0000   1.0000   1.0000   1.0000   1.0000   1.0000   1.0000
     1.0000   1.0000   1.0000   1.0000   1.0000   1.0000   1.0000   1.0000
     1.0000   1.0000   1.0000   1.0000   0.0000   0.0000   0.0000   0.0000
     0.0000   0.0000   0.0000   0.0000

          k = 0.3977 0.1326-0.1326 (  5731 PWs)   bands (ev):

   -14.5772 -14.5772 -14.5527 -14.5526 -14.5009 -14.5008 -14.4697 -14.4697
   -13.6038 -13.6038 -13.5372 -13.5372 -13.4934 -13.4934 -13.4005 -13.4005
   -13.3591 -13.3591 -13.3172 -13.3172  -1.7012  -1.7012   2.4689   2.4689
     5.4794   5.4794   5.9827   5.9827   8.9802   8.9802  10.1362  10.1362
    11.7646  11.7646  12.1346  12.1346

     occupation numbers 
     1.0000   1.0000   1.0000   1.0000   1.0000   1.0000   1.0000   1.0000
     1.0000   1.0000   1.0000   1.0000   1.0000   1.0000   1.0000   1.0000
     1.0000   1.0000   1.0000   1.0000   1.0000   1.0000   1.0000   1.0000
     1.0000   1.0000   1.0000   1.0000   0.0000   0.0000   0.0000   0.0000
     0.0000   0.0000   0.0000   0.0000

          k = 0.4419 0.1768-0.1768 (  5728 PWs)   bands (ev):

   -14.5788 -14.5788 -14.5468 -14.5467 -14.5070 -14.5069 -14.4670 -14.4670
   -13.5932 -13.5932 -13.5446 -13.5446 -13.4973 -13.4973 -13.4046 -13.4045
   -13.3537 -13.3537 -13.3166 -13.3166  -1.3830  -1.3830   1.8773   1.8773
     5.2000   5.2000   5.9389   5.9389   8.9202   8.9202  10.5440  10.5440
    11.9117  11.9117  12.1034  12.1034

     occupation numbers 
     1.0000   1.0000   1.0000   1.0000   1.0000   1.0000   1.0000   1.0000
     1.0000   1.0000   1.0000   1.0000   1.0000   1.0000   1.0000   1.0000
     1.0000   1.0000   1.0000   1.0000   1.0000   1.0000   1.0000   1.0000
     1.0000   1.0000   1.0000   1.0000   0.0000   0.0000   0.0000   0.0000
     0.0000   0.0000   0.0000   0.0000

          k =-0.2210-0.4861 0.4861 (  5722 PWs)   bands (ev):

   -14.5800 -14.5800 -14.5414 -14.5413 -14.5127 -14.5126 -14.4649 -14.4649
   -13.5856 -13.5856 -13.5492 -13.5492 -13.5000 -13.5000 -13.4081 -13.4081
   -13.3512 -13.3511 -13.3152 -13.3152  -1.1051  -1.1051   1.4302   1.4302
     4.9844   4.9844   5.9650   5.9650   8.8729   8.8729  10.7769  10.7769
    11.9044  11.9044  12.4969  12.4969

     occupation numbers 
     1.0000   1.0000   1.0000   1.0000   1.0000   1.0000   1.0000   1.0000
     1.0000   1.0000   1.0000   1.0000   1.0000   1.0000   1.0000   1.0000
     1.0000   1.0000   1.0000   1.0000   1.0000   1.0000   1.0000   1.0000
     1.0000   1.0000   1.0000   1.0000   0.0000   0.0000   0.0000   0.0000
     0.0000   0.0000   0.0000   0.0000

          k =-0.1768-0.4419 0.4419 (  5728 PWs)   bands (ev):

   -14.5807 -14.5807 -14.5380 -14.5379 -14.5163 -14.5161 -14.4638 -14.4638
   -13.5832 -13.5831 -13.5505 -13.5505 -13.5005 -13.5004 -13.4103 -13.4103
   -13.3500 -13.3500 -13.3145 -13.3145  -0.9899  -0.9899   1.2613   1.2613
     4.8458   4.8458   6.0582   6.0582   8.8624   8.8624  10.8890  10.8890
    11.7464  11.7464  13.1874  13.1874

     occupation numbers 
     1.0000   1.0000   1.0000   1.0000   1.0000   1.0000   1.0000   1.0000
     1.0000   1.0000   1.0000   1.0000   1.0000   1.0000   1.0000   1.0000
     1.0000   1.0000   1.0000   1.0000   1.0000   1.0000   1.0000   1.0000
     1.0000   1.0000   1.0000   1.0000   0.0000   0.0000   0.0000   0.0000
     0.0000   0.0000   0.0000   0.0000

          k =-0.1326-0.3977 0.3977 (  5732 PWs)   bands (ev):

   -14.5808 -14.5808 -14.5388 -14.5387 -14.5156 -14.5155 -14.4638 -14.4638
   -13.5865 -13.5865 -13.5488 -13.5488 -13.4983 -13.4983 -13.4108 -13.4108
   -13.3496 -13.3496 -13.3153 -13.3153  -1.1198  -1.1198   1.4540   1.4540
     4.7951   4.7951   6.2125   6.2125   8.8894   8.8894  10.9863  10.9863
    11.5610  11.5610  13.3526  13.3526

     occupation numbers 
     1.0000   1.0000   1.0000   1.0000   1.0000   1.0000   1.0000   1.0000
     1.0000   1.0000   1.0000   1.0000   1.0000   1.0000   1.0000   1.0000
     1.0000   1.0000   1.0000   1.0000   1.0000   1.0000   1.0000   1.0000
     1.0000   1.0000   1.0000   1.0000   0.0000   0.0000   0.0000   0.0000
     0.0000   0.0000   0.0000   0.0000

          k =-0.0884-0.3536 0.3536 (  5736 PWs)   bands (ev):

   -14.5803 -14.5803 -14.5431 -14.5430 -14.5113 -14.5112 -14.4649 -14.4649
   -13.5945 -13.5945 -13.5442 -13.5442 -13.4946 -13.4946 -13.4094 -13.4094
   -13.3503 -13.3503 -13.3173 -13.3173  -1.4025  -1.4025   1.9074   1.9074
     4.8461   4.8461   6.4179   6.4179   8.9404   8.9404  11.0931  11.0931
    11.3388  11.3388  12.6471  12.6472

     occupation numbers 
     1.0000   1.0000   1.0000   1.0000   1.0000   1.0000   1.0000   1.0000
     1.0000   1.0000   1.0000   1.0000   1.0000   1.0000   1.0000   1.0000
     1.0000   1.0000   1.0000   1.0000   1.0000   1.0000   1.0000   1.0000
     1.0000   1.0000   1.0000   1.0000   0.0000   0.0000   0.0000   0.0000
     0.0000   0.0000   0.0000   0.0000

          k =-0.0442-0.3094 0.3094 (  5730 PWs)   bands (ev):

   -14.5794 -14.5794 -14.5486 -14.5485 -14.5056 -14.5055 -14.4669 -14.4669
   -13.6052 -13.6052 -13.5368 -13.5368 -13.4906 -13.4906 -13.4065 -13.4065
   -13.3534 -13.3534 -13.3190 -13.3190  -1.7196  -1.7196   2.4797   2.4797
     5.0203   5.0203   6.6574   6.6574   8.9815   8.9815  11.0273  11.0273
    11.1723  11.1723  11.9819  11.9819

     occupation numbers 
     1.0000   1.0000   1.0000   1.0000   1.0000   1.0000   1.0000   1.0000
     1.0000   1.0000   1.0000   1.0000   1.0000   1.0000   1.0000   1.0000
     1.0000   1.0000   1.0000   1.0000   1.0000   1.0000   1.0000   1.0000
     1.0000   1.0000   1.0000   1.0000   0.0000   0.0000   0.0000   0.0000
     0.0000   0.0000   0.0000   0.0000

          k = 0.0000-0.2652 0.2652 (  5735 PWs)   bands (ev):

   -14.5782 -14.5781 -14.5540 -14.5539 -14.4998 -14.4997 -14.4696 -14.4695
   -13.6167 -13.6166 -13.5271 -13.5271 -13.4874 -13.4874 -13.4027 -13.4027
   -13.3603 -13.3603 -13.3189 -13.3189  -2.0108  -2.0108   3.0715   3.0715
     5.3482   5.3482   6.9024   6.9024   8.9399   8.9399  10.7068  10.7068
    10.9247  10.9247  11.7662  11.7662

     occupation numbers 
     1.0000   1.0000   1.0000   1.0000   1.0000   1.0000   1.0000   1.0000
     1.0000   1.0000   1.0000   1.0000   1.0000   1.0000   1.0000   1.0000
     1.0000   1.0000   1.0000   1.0000   1.0000   1.0000   1.0000   1.0000
     1.0000   1.0000   1.0000   1.0000   0.0000   0.0000   0.0000   0.0000
     0.0000   0.0000   0.0000   0.0000

          k = 0.3536 0.0000 0.0000 (  5758 PWs)   bands (ev):

   -14.5724 -14.5724 -14.5629 -14.5629 -14.4906 -14.4906 -14.4758 -14.4758
   -13.6189 -13.6189 -13.5248 -13.5248 -13.4870 -13.4870 -13.3937 -13.3937
   -13.3740 -13.3740 -13.3147 -13.3147  -2.0805  -2.0805   3.3969   3.3969
     5.9435   5.9435   6.0604   6.0604   8.5682   8.5682   9.6813   9.6813
    12.2678  12.2678  12.3221  12.3221

     occupation numbers 
     1.0000   1.0000   1.0000   1.0000   1.0000   1.0000   1.0000   1.0000
     1.0000   1.0000   1.0000   1.0000   1.0000   1.0000   1.0000   1.0000
     1.0000   1.0000   1.0000   1.0000   1.0000   1.0000   1.0000   1.0000
     1.0000   1.0000   1.0000   1.0000   0.0000   0.0000   0.0000   0.0000
     0.0000   0.0000   0.0000   0.0000

          k = 0.3977 0.0442-0.0442 (  5732 PWs)   bands (ev):

   -14.5731 -14.5731 -14.5602 -14.5602 -14.4932 -14.4932 -14.4745 -14.4745
   -13.6094 -13.6094 -13.5332 -13.5332 -13.4899 -13.4899 -13.3989 -13.3989
   -13.3651 -13.3651 -13.3152 -13.3152  -1.8562  -1.8562   2.8992   2.8992
     5.7040   5.7040   5.8621   5.8621   8.5945   8.5945   9.6139   9.6140
    12.4056  12.4056  12.6561  12.6561

     occupation numbers 
     1.0000   1.0000   1.0000   1.0000   1.0000   1.0000   1.0000   1.0000
     1.0000   1.0000   1.0000   1.0000   1.0000   1.0000   1.0000   1.0000
     1.0000   1.0000   1.0000   1.0000   1.0000   1.0000   1.0000   1.0000
     1.0000   1.0000   1.0000   1.0000   0.0000   0.0000   0.0000   0.0000
     0.0000   0.0000   0.0000   0.0000

          k = 0.4419 0.0884-0.0884 (  5724 PWs)   bands (ev):

   -14.5748 -14.5748 -14.5558 -14.5557 -14.4977 -14.4977 -14.4718 -14.4718
   -13.5993 -13.5993 -13.5407 -13.5406 -13.4922 -13.4922 -13.4065 -13.4065
   -13.3569 -13.3569 -13.3148 -13.3148  -1.5754  -1.5754   2.3498   2.3498
     5.3628   5.3628   5.7361   5.7361   8.7560   8.7560   9.7369   9.7369
    12.2576  12.2576  12.8136  12.8136

     occupation numbers 
     1.0000   1.0000   1.0000   1.0000   1.0000   1.0000   1.0000   1.0000
     1.0000   1.0000   1.0000   1.0000   1.0000   1.0000   1.0000   1.0000
     1.0000   1.0000   1.0000   1.0000   1.0000   1.0000   1.0000   1.0000
     1.0000   1.0000   1.0000   1.0000   0.0000   0.0000   0.0000   0.0000
     0.0000   0.0000   0.0000   0.0000

          k = 0.4861 0.1326-0.1326 (  5716 PWs)   bands (ev):

   -14.5767 -14.5767 -14.5507 -14.5507 -14.5032 -14.5031 -14.4687 -14.4686
   -13.5906 -13.5906 -13.5455 -13.5455 -13.4941 -13.4940 -13.4146 -13.4146
   -13.3518 -13.3518 -13.3127 -13.3127  -1.2581  -1.2581   1.8127   1.8127
     5.0107   5.0107   5.6867   5.6867   8.8179   8.8179  10.2063  10.2063
    12.1131  12.1131  12.7896  12.7896

     occupation numbers 
     1.0000   1.0000   1.0000   1.0000   1.0000   1.0000   1.0000   1.0000
     1.0000   1.0000   1.0000   1.0000   1.0000   1.0000   1.0000   1.0000
     1.0000   1.0000   1.0000   1.0000   1.0000   1.0000   1.0000   1.0000
     1.0000   1.0000   1.0000   1.0000   0.0000   0.0000   0.0000   0.0000
     0.0000   0.0000   0.0000   0.0000

          k =-0.1768-0.5303 0.5303 (  5725 PWs)   bands (ev):

   -14.5784 -14.5784 -14.5458 -14.5457 -14.5086 -14.5085 -14.4658 -14.4658
   -13.5854 -13.5854 -13.5466 -13.5466 -13.4954 -13.4954 -13.4217 -13.4217
   -13.3498 -13.3498 -13.3097 -13.3097  -0.9524  -0.9524   1.3602   1.3602
[...]

     occupation numbers 
     1.0000   1.0000   1.0000   1.0000   1.0000   1.0000   1.0000   1.0000
     1.0000   1.0000   1.0000   1.0000   1.0000   1.0000   1.0000   1.0000
     1.0000   1.0000   1.0000   1.0000   1.0000   1.0000   1.0000   1.0000
     1.0000   1.0000   1.0000   1.0000   0.0000   0.0000   0.0000   0.0000
     0.0000   0.0000   0.0000   0.0000

          k =-0.1326-0.3977 0.5745 (  5730 PWs)   bands (ev):

   -14.5796 -14.5796 -14.5423 -14.5421 -14.5132 -14.5130 -14.4632 -14.4631
   -13.5849 -13.5849 -13.5426 -13.5426 -13.4936 -13.4936 -13.4325 -13.4325
   -13.3500 -13.3500 -13.3044 -13.3044  -0.6757  -0.6757   1.0468   1.0468
     4.4614   4.4614   5.4987   5.4987   9.5757   9.5757  10.8095  10.8095
    12.1153  12.1153  12.9070  12.9070

     occupation numbers 
     1.0000   1.0000   1.0000   1.0000   1.0000   1.0000   1.0000   1.0000
     1.0000   1.0000   1.0000   1.0000   1.0000   1.0000   1.0000   1.0000
     1.0000   1.0000   1.0000   1.0000   1.0000   1.0000   1.0000   1.0000
     1.0000   1.0000   1.0000   1.0000   0.0000   0.0000   0.0000   0.0000
     0.0000   0.0000   0.0000   0.0000

          k =-0.0884-0.3536 0.5303 (  5731 PWs)   bands (ev):

   -14.5798 -14.5798 -14.5416 -14.5415 -14.5139 -14.5137 -14.4629 -14.4628
   -13.5855 -13.5855 -13.5428 -13.5427 -13.4932 -13.4931 -13.4321 -13.4321
   -13.3501 -13.3501 -13.3047 -13.3047  -0.7343  -0.7343   1.1212   1.1212
     4.4252   4.4252   5.5727   5.5727   9.6380   9.6380  10.7796  10.7796
    12.1934  12.1934  12.8748  12.8748

     occupation numbers 
     1.0000   1.0000   1.0000   1.0000   1.0000   1.0000   1.0000   1.0000
     1.0000   1.0000   1.0000   1.0000   1.0000   1.0000   1.0000   1.0000
     1.0000   1.0000   1.0000   1.0000   1.0000   1.0000   1.0000   1.0000
     1.0000   1.0000   1.0000   1.0000   0.0000   0.0000   0.0000   0.0000
     0.0000   0.0000   0.0000   0.0000

          k =-0.0442-0.3094 0.4861 (  5725 PWs)   bands (ev):

   -14.5797 -14.5796 -14.5432 -14.5431 -14.5120 -14.5119 -14.4637 -14.4637
   -13.5879 -13.5879 -13.5441 -13.5441 -13.4923 -13.4923 -13.4267 -13.4267
   -13.3503 -13.3503 -13.3075 -13.3075  -0.9968  -0.9968   1.4641   1.4641
     4.4984   4.4984   5.7259   5.7259   9.7072   9.7072  10.6788  10.6788
    11.5580  11.5580  13.1119  13.1119

     occupation numbers 
     1.0000   1.0000   1.0000   1.0000   1.0000   1.0000   1.0000   1.0000
     1.0000   1.0000   1.0000   1.0000   1.0000   1.0000   1.0000   1.0000
     1.0000   1.0000   1.0000   1.0000   1.0000   1.0000   1.0000   1.0000
     1.0000   1.0000   1.0000   1.0000   0.0000   0.0000   0.0000   0.0000
     0.0000   0.0000   0.0000   0.0000

          k = 0.0000-0.2652 0.4419 (  5714 PWs)   bands (ev):

   -14.5791 -14.5791 -14.5464 -14.5463 -14.5084 -14.5083 -14.4654 -14.4654
   -13.5933 -13.5933 -13.5434 -13.5434 -13.4918 -13.4918 -13.4178 -13.4178
   -13.3516 -13.3516 -13.3119 -13.3118  -1.3160  -1.3160   1.9093   1.9093
     4.7042   4.7042   5.9314   5.9314   9.7199   9.7199  10.3370  10.3370
    11.3369  11.3369  12.8669  12.8669

     occupation numbers 
     1.0000   1.0000   1.0000   1.0000   1.0000   1.0000   1.0000   1.0000
     1.0000   1.0000   1.0000   1.0000   1.0000   1.0000   1.0000   1.0000
     1.0000   1.0000   1.0000   1.0000   1.0000   1.0000   1.0000   1.0000
     1.0000   1.0000   1.0000   1.0000   0.0000   0.0000   0.0000   0.0000
     0.0000   0.0000   0.0000   0.0000

          k =-0.1768-0.5303 0.7071 (  5699 PWs)   bands (ev):

   -14.5758 -14.5758 -14.5517 -14.5516 -14.5025 -14.5024 -14.4688 -14.4688
   -13.5864 -13.5864 -13.5468 -13.5467 -13.4908 -13.4908 -13.4264 -13.4263
   -13.3487 -13.3487 -13.3094 -13.3094  -1.0086  -1.0086   1.5156   1.5156
     4.8816   4.8816   5.3671   5.3671   9.2207   9.2207   9.6730   9.6730
    12.1270  12.1270  13.8780  13.8780

     occupation numbers 
     1.0000   1.0000   1.0000   1.0000   1.0000   1.0000   1.0000   1.0000
     1.0000   1.0000   1.0000   1.0000   1.0000   1.0000   1.0000   1.0000
     1.0000   1.0000   1.0000   1.0000   1.0000   1.0000   1.0000   1.0000
     1.0000   1.0000   1.0000   1.0000   0.0000   0.0000   0.0000   0.0000
     0.0000   0.0000   0.0000   0.0000

          k =-0.1326-0.4861 0.6629 (  5713 PWs)   bands (ev):

   -14.5770 -14.5769 -14.5488 -14.5487 -14.5061 -14.5059 -14.4664 -14.4663
   -13.5845 -13.5845 -13.5442 -13.5442 -13.4888 -13.4887 -13.4372 -13.4372
   -13.3481 -13.3481 -13.3050 -13.3050  -0.6836  -0.6836   1.1083   1.1083
     4.6369   4.6369   5.2351   5.2351   9.4184   9.4184  10.1532  10.1532
    11.9338  11.9338  13.8284  13.8284

     occupation numbers 
     1.0000   1.0000   1.0000   1.0000   1.0000   1.0000   1.0000   1.0000
     1.0000   1.0000   1.0000   1.0000   1.0000   1.0000   1.0000   1.0000
     1.0000   1.0000   1.0000   1.0000   1.0000   1.0000   1.0000   1.0000
     1.0000   1.0000   1.0000   1.0000   0.0000   0.0000   0.0000   0.0000
     0.0000   0.0000   0.0000   0.0000

          k =-0.0884-0.4419 0.6187 (  5725 PWs)   bands (ev):

   -14.5781 -14.5781 -14.5461 -14.5459 -14.5094 -14.5093 -14.4642 -14.4642
   -13.5849 -13.5848 -13.5404 -13.5403 -13.4872 -13.4872 -13.4448 -13.4447
   -13.3488 -13.3488 -13.3016 -13.3016  -0.4271  -0.4271   0.8135   0.8135
     4.4264   4.4264   5.2232   5.2232   9.4934   9.4934  10.9174  10.9174
    11.8085  11.8085  13.1980  13.1980

     occupation numbers 
     1.0000   1.0000   1.0000   1.0000   1.0000   1.0000   1.0000   1.0000
     1.0000   1.0000   1.0000   1.0000   1.0000   1.0000   1.0000   1.0000
     1.0000   1.0000   1.0000   1.0000   1.0000   1.0000   1.0000   1.0000
     1.0000   1.0000   1.0000   1.0000   0.0000   0.0000   0.0000   0.0000
     0.0000   0.0000   0.0000   0.0000

          k =-0.0442-0.3977 0.5745 (  5724 PWs)   bands (ev):

   -14.5790 -14.5790 -14.5439 -14.5437 -14.5120 -14.5118 -14.4629 -14.4629
   -13.5856 -13.5855 -13.5389 -13.5389 -13.4875 -13.4874 -13.4455 -13.4455
   -13.3495 -13.3495 -13.3007 -13.3007  -0.4274  -0.4274   0.8169   0.8169
     4.3064   4.3064   5.3175   5.3175   9.5897   9.5897  11.3908  11.3908
    12.0603  12.0603  12.4064  12.4064

     occupation numbers 
     1.0000   1.0000   1.0000   1.0000   1.0000   1.0000   1.0000   1.0000
     1.0000   1.0000   1.0000   1.0000   1.0000   1.0000   1.0000   1.0000
     1.0000   1.0000   1.0000   1.0000   1.0000   1.0000   1.0000   1.0000
     1.0000   1.0000   1.0000   1.0000   0.0000   0.0000   0.0000   0.0000
     0.0000   0.0000   0.0000   0.0000

          k = 0.0000-0.3536 0.5303 (  5730 PWs)   bands (ev):

   -14.5796 -14.5795 -14.5427 -14.5426 -14.5130 -14.5128 -14.4627 -14.4627
   -13.5862 -13.5862 -13.5410 -13.5410 -13.4896 -13.4895 -13.4386 -13.4386
   -13.3499 -13.3499 -13.3028 -13.3028  -0.6791  -0.6791   1.1013   1.1013
     4.3207   4.3207   5.4945   5.4945   9.6948   9.6948  11.2284  11.2284
    11.6513  11.6513  12.9500  12.9500

     occupation numbers 
     1.0000   1.0000   1.0000   1.0000   1.0000   1.0000   1.0000   1.0000
     1.0000   1.0000   1.0000   1.0000   1.0000   1.0000   1.0000   1.0000
     1.0000   1.0000   1.0000   1.0000   1.0000   1.0000   1.0000   1.0000
     1.0000   1.0000   1.0000   1.0000   0.0000   0.0000   0.0000   0.0000
     0.0000   0.0000   0.0000   0.0000

          k =-0.0884-0.5303 0.7071 (  5712 PWs)   bands (ev):

   -14.5747 -14.5747 -14.5523 -14.5522 -14.5018 -14.5017 -14.4691 -14.4691
   -13.5819 -13.5819 -13.5469 -13.5468 -13.4829 -13.4829 -13.4453 -13.4452
   -13.3443 -13.3443 -13.3060 -13.3060  -0.4494  -0.4494   0.8277   0.8277
     4.7946   4.7946   5.0641   5.0641   9.1857   9.1857   9.4594   9.4594
    12.8489  12.8489  14.1799  14.1799

     occupation numbers 
     1.0000   1.0000   1.0000   1.0000   1.0000   1.0000   1.0000   1.0000
     1.0000   1.0000   1.0000   1.0000   1.0000   1.0000   1.0000   1.0000
     1.0000   1.0000   1.0000   1.0000   1.0000   1.0000   1.0000   1.0000
     1.0000   1.0000   1.0000   1.0000   0.0000   0.0000   0.0000   0.0000
     0.0000   0.0000   0.0000   0.0000

          k =-0.0442-0.4861 0.6629 (  5722 PWs)   bands (ev):

   -14.5762 -14.5762 -14.5498 -14.5496 -14.5053 -14.5051 -14.4665 -14.4664
   -13.5835 -13.5835 -13.5419 -13.5418 -13.4793 -13.4791 -13.4544 -13.4543
   -13.3462 -13.3462 -13.3019 -13.3019  -0.1458  -0.1458   0.5099   0.5099
     4.5735   4.5735   5.0141   5.0141   9.3603   9.3603  10.0754  10.0754
    12.6494  12.6494  13.4232  13.4232

     occupation numbers 
     1.0000   1.0000   1.0000   1.0000   1.0000   1.0000   1.0000   1.0000
     1.0000   1.0000   1.0000   1.0000   1.0000   1.0000   1.0000   1.0000
     1.0000   1.0000   1.0000   1.0000   1.0000   1.0000   1.0000   1.0000
     1.0000   1.0000   1.0000   1.0000   0.0000   0.0000   0.0000   0.0000
     0.0000   0.0000   0.0000   0.0000

          k = 0.0000-0.4419 0.6187 (  5733 PWs)   bands (ev):

   -14.5777 -14.5777 -14.5468 -14.5466 -14.5089 -14.5087 -14.4642 -14.4642
   -13.5850 -13.5850 -13.5385 -13.5385 -13.4812 -13.4811 -13.4546 -13.4545
   -13.3482 -13.3482 -13.2999 -13.2998  -0.1441  -0.1441   0.5192   0.5192
     4.3707   4.3707   5.1215   5.1215   9.4661   9.4661  10.9382  10.9382
    12.4359  12.4359  12.5469  12.5470

     occupation numbers 
     1.0000   1.0000   1.0000   1.0000   1.0000   1.0000   1.0000   1.0000
     1.0000   1.0000   1.0000   1.0000   1.0000   1.0000   1.0000   1.0000
     1.0000   1.0000   1.0000   1.0000   1.0000   1.0000   1.0000   1.0000
     1.0000   1.0000   1.0000   1.0000   0.0000   0.0000   0.0000   0.0000
     0.0000   0.0000   0.0000   0.0000

          k =-0.7071 0.1768 0.0000 (  5722 PWs)   bands (ev):

   -14.5742 -14.5742 -14.5528 -14.5527 -14.5013 -14.5012 -14.4694 -14.4693
   -13.5812 -13.5812 -13.5462 -13.5461 -13.4728 -13.4726 -13.4594 -13.4592
   -13.3427 -13.3426 -13.3048 -13.3048   0.1504   0.1505   0.1846   0.1847
     4.7933   4.7933   4.9339   4.9339   9.2095   9.2096   9.3427   9.3427
    13.5381  13.5381  13.7054  13.7054

     occupation numbers 
     1.0000   1.0000   1.0000   1.0000   1.0000   1.0000   1.0000   1.0000
     1.0000   1.0000   1.0000   1.0000   1.0000   1.0000   1.0000   1.0000
     1.0000   1.0000   1.0000   1.0000   1.0000   1.0000   1.0000   1.0000
     1.0000   1.0000   1.0000   1.0000   0.0000   0.0000   0.0000   0.0000
     0.0000   0.0000   0.0000   0.0000

          k =-0.1768-0.4419 0.7071 (  5721 PWs)   bands (ev):

   -14.5784 -14.5784 -14.5462 -14.5461 -14.5090 -14.5089 -14.4647 -14.4647
   -13.5866 -13.5866 -13.5434 -13.5433 -13.4908 -13.4908 -13.4321 -13.4321
   -13.3501 -13.3500 -13.3054 -13.3054  -0.8635  -0.8635   1.3297   1.3297
     4.5543   4.5543   5.4022   5.4022  10.0359  10.0359  10.2747  10.2747
    11.2902  11.2902  13.6024  13.6024

     occupation numbers 
     1.0000   1.0000   1.0000   1.0000   1.0000   1.0000   1.0000   1.0000
     1.0000   1.0000   1.0000   1.0000   1.0000   1.0000   1.0000   1.0000
     1.0000   1.0000   1.0000   1.0000   1.0000   1.0000   1.0000   1.0000
     1.0000   1.0000   1.0000   1.0000   0.0000   0.0000   0.0000   0.0000
     0.0000   0.0000   0.0000   0.0000

          k =-0.1326-0.3977 0.6629 (  5722 PWs)   bands (ev):

   -14.5788 -14.5788 -14.5447 -14.5445 -14.5110 -14.5108 -14.4634 -14.4634
   -13.5858 -13.5857 -13.5399 -13.5399 -13.4889 -13.4889 -13.4417 -13.4416
   -13.3500 -13.3499 -13.3016 -13.3016  -0.5598  -0.5598   0.9705   0.9705
     4.4175   4.4175   5.2353   5.2353  10.1194  10.1194  10.7157  10.7157
    11.4263  11.4263  13.0765  13.0765

     occupation numbers 
     1.0000   1.0000   1.0000   1.0000   1.0000   1.0000   1.0000   1.0000
     1.0000   1.0000   1.0000   1.0000   1.0000   1.0000   1.0000   1.0000
     1.0000   1.0000   1.0000   1.0000   1.0000   1.0000   1.0000   1.0000
     1.0000   1.0000   1.0000   1.0000   0.0000   0.0000   0.0000   0.0000
     0.0000   0.0000   0.0000   0.0000

          k =-0.0884-0.3536 0.6187 (  5708 PWs)   bands (ev):

   -14.5789 -14.5789 -14.5442 -14.5440 -14.5117 -14.5115 -14.4629 -14.4629
   -13.5857 -13.5857 -13.5382 -13.5382 -13.4881 -13.4880 -13.4455 -13.4454
   -13.3501 -13.3500 -13.3002 -13.3002  -0.4113  -0.4113   0.8021   0.8021
     4.3743   4.3743   5.1744   5.1744  10.1264  10.1264  10.8007  10.8007
    12.0264  12.0264  12.3349  12.3349

     occupation numbers 
     1.0000   1.0000   1.0000   1.0000   1.0000   1.0000   1.0000   1.0000
     1.0000   1.0000   1.0000   1.0000   1.0000   1.0000   1.0000   1.0000
     1.0000   1.0000   1.0000   1.0000   1.0000   1.0000   1.0000   1.0000
     1.0000   1.0000   1.0000   1.0000   0.0000   0.0000   0.0000   0.0000
     0.0000   0.0000   0.0000   0.0000

          k =-0.0884-0.4419 0.7071 (  5719 PWs)   bands (ev):

   -14.5775 -14.5774 -14.5476 -14.5474 -14.5080 -14.5078 -14.4647 -14.4647
   -13.5850 -13.5850 -13.5397 -13.5396 -13.4843 -13.4843 -13.4490 -13.4490
   -13.3487 -13.3487 -13.3008 -13.3007  -0.3576  -0.3576   0.7538   0.7538
     4.5352   4.5352   4.9859   4.9859  10.0480  10.0480  10.2660  10.2660
    11.7350  11.7350  13.2468  13.2468

     occupation numbers 
     1.0000   1.0000   1.0000   1.0000   1.0000   1.0000   1.0000   1.0000
     1.0000   1.0000   1.0000   1.0000   1.0000   1.0000   1.0000   1.0000
     1.0000   1.0000   1.0000   1.0000   1.0000   1.0000   1.0000   1.0000
     1.0000   1.0000   1.0000   1.0000   0.0000   0.0000   0.0000   0.0000
     0.0000   0.0000   0.0000   0.0000

          k =-0.0442-0.3977 0.6629 (  5730 PWs)   bands (ev):

   -14.5780 -14.5780 -14.5464 -14.5462 -14.5096 -14.5094 -14.4635 -14.4634
   -13.5858 -13.5858 -13.5363 -13.5362 -13.4814 -13.4813 -13.4560 -13.4559
   -13.3496 -13.3495 -13.2984 -13.2983  -0.1225  -0.1225   0.5113   0.5113
     4.4455   4.4455   4.9008   4.9008  10.2127  10.2127  10.9582  10.9582
    11.6339  11.6339  12.3203  12.3203

     occupation numbers 
     1.0000   1.0000   1.0000   1.0000   1.0000   1.0000   1.0000   1.0000
     1.0000   1.0000   1.0000   1.0000   1.0000   1.0000   1.0000   1.0000
     1.0000   1.0000   1.0000   1.0000   1.0000   1.0000   1.0000   1.0000
     1.0000   1.0000   1.0000   1.0000   0.0000   0.0000   0.0000   0.0000
     0.0000   0.0000   0.0000   0.0000

          k =-0.0000-0.3536 0.6187 (  5725 PWs)   bands (ev):

   -14.5785 -14.5785 -14.5454 -14.5452 -14.5107 -14.5105 -14.4630 -14.4630
   -13.5861 -13.5860 -13.5364 -13.5363 -13.4839 -13.4838 -13.4526 -13.4525
   -13.3500 -13.3500 -13.2986 -13.2986  -0.2510  -0.2510   0.6474   0.6474
     4.3803   4.3803   5.0079   5.0079  10.2909  10.2909  11.1350  11.1350
    11.5209  11.5209  12.2085  12.2085

     occupation numbers 
     1.0000   1.0000   1.0000   1.0000   1.0000   1.0000   1.0000   1.0000
     1.0000   1.0000   1.0000   1.0000   1.0000   1.0000   1.0000   1.0000
     1.0000   1.0000   1.0000   1.0000   1.0000   1.0000   1.0000   1.0000
     1.0000   1.0000   1.0000   1.0000   0.0000   0.0000   0.0000   0.0000
     0.0000   0.0000   0.0000   0.0000

          k =-0.7071 0.2652 0.0000 (  5726 PWs)   bands (ev):

   -14.5770 -14.5770 -14.5484 -14.5482 -14.5073 -14.5071 -14.4648 -14.4648
   -13.5850 -13.5850 -13.5379 -13.5378 -13.4764 -13.4762 -13.4608 -13.4606
   -13.3481 -13.3481 -13.2991 -13.2991   0.1642   0.1642   0.2098   0.2098
     4.6021   4.6021   4.7697   4.7697  10.0445  10.0445  10.2275  10.2275
    12.4068  12.4068  12.5228  12.5228

     occupation numbers 
     1.0000   1.0000   1.0000   1.0000   1.0000   1.0000   1.0000   1.0000
     1.0000   1.0000   1.0000   1.0000   1.0000   1.0000   1.0000   1.0000
     1.0000   1.0000   1.0000   1.0000   1.0000   1.0000   1.0000   1.0000
     1.0000   1.0000   1.0000   1.0000   0.0000   0.0000   0.0000   0.0000
     0.0000   0.0000   0.0000   0.0000

          k =-0.7071 0.3536 0.0000 (  5708 PWs)   bands (ev):

   -14.5780 -14.5780 -14.5466 -14.5464 -14.5096 -14.5094 -14.4632 -14.4632
   -13.5863 -13.5862 -13.5345 -13.5345 -13.4778 -13.4776 -13.4618 -13.4616
   -13.3499 -13.3499 -13.2971 -13.2971   0.1703   0.1703   0.2201   0.2202
     4.5304   4.5304   4.7063   4.7063  10.7321  10.7321  11.0509  11.0509
    11.5946  11.5946  11.6166  11.6166

     occupation numbers 
     1.0000   1.0000   1.0000   1.0000   1.0000   1.0000   1.0000   1.0000
     1.0000   1.0000   1.0000   1.0000   1.0000   1.0000   1.0000   1.0000
     1.0000   1.0000   1.0000   1.0000   1.0000   1.0000   1.0000   1.0000
     1.0000   1.0000   1.0000   1.0000   0.0000   0.0000   0.0000   0.0000
     0.0000   0.0000   0.0000   0.0000

     the Fermi energy is     7.6187 ev

!    total energy              =    -885.87898875 Ry
     Harris-Foulkes estimate   =    -885.87898876 Ry
     estimated scf accuracy    <       0.00000002 Ry

     total all-electron energy =    -24716.578738 Ry

     The total energy is the sum of the following terms:

     one-electron contribution =    -148.96125463 Ry
     hartree contribution      =      93.73222594 Ry
     xc contribution           =     -96.17753872 Ry
     ewald contribution        =    -170.59904349 Ry
     one-center paw contrib.   =    -563.87337779 Ry
     smearing contrib. (-TS)   =      -0.00000006 Ry

     convergence has been achieved in   6 iterations

     Writing output data file Sn.save
 
     init_run     :     13.89s CPU     14.96s WALL (       1 calls)
     electrons    :    305.94s CPU    325.64s WALL (       1 calls)

     Called by init_run:
     wfcinit      :     13.18s CPU     14.01s WALL (       1 calls)
     potinit      :      0.22s CPU      0.25s WALL (       1 calls)

     Called by electrons:
     c_bands      :    256.53s CPU    273.21s WALL (       7 calls)
     sum_band     :     47.59s CPU     50.40s WALL (       7 calls)
     v_of_rho     :      0.09s CPU      0.10s WALL (       7 calls)
     v_h          :      0.00s CPU      0.01s WALL (       7 calls)
     v_xc         :      0.08s CPU      0.09s WALL (       7 calls)
     newd         :      0.57s CPU      0.63s WALL (       7 calls)
     PAW_pot      :      1.38s CPU      1.47s WALL (       7 calls)
     mix_rho      :      0.03s CPU      0.06s WALL (       7 calls)

     Called by c_bands:
     init_us_2    :      0.68s CPU      0.76s WALL (    2175 calls)
     cegterg      :    244.01s CPU    260.34s WALL (    1015 calls)

     Called by sum_band:
     sum_band:bec :      3.28s CPU      3.36s WALL (    1015 calls)
     addusdens    :      0.43s CPU      0.52s WALL (       7 calls)

     Called by *egterg:
     h_psi        :    212.75s CPU    225.97s WALL (    3525 calls)
     s_psi        :      5.75s CPU      5.79s WALL (    3525 calls)
     g_psi        :      0.58s CPU      0.59s WALL (    2365 calls)
     cdiaghg      :     13.65s CPU     13.91s WALL (    3235 calls)
     cegterg:over :      9.59s CPU      9.66s WALL (    2365 calls)
     cegterg:upda :      4.63s CPU      4.65s WALL (    2365 calls)
     cegterg:last :      2.59s CPU      2.60s WALL (    1015 calls)

     Called by h_psi:
     h_psi:vloc   :    198.90s CPU    211.92s WALL (    3525 calls)
     h_psi:vnl    :     13.37s CPU     13.53s WALL (    3525 calls)
     add_vuspsi   :      6.13s CPU      6.17s WALL (    3525 calls)

     General routines
     calbec       :      9.74s CPU      9.91s WALL (    4540 calls)
     fft          :      0.13s CPU      0.18s WALL (     135 calls)
     fftw         :    225.82s CPU    240.62s WALL (  461772 calls)
     davcio       :      0.04s CPU      0.54s WALL (     145 calls)
 
     Parallel routines
     fft_scatter  :    151.02s CPU    161.34s WALL (  461907 calls)

     PAW routines
     PAW_pot      :      1.38s CPU      1.47s WALL (       7 calls)
     PAW_symme    :      0.03s CPU      0.03s WALL (      14 calls)
 
     PWSCF        :  5m21.52s CPU     5m43.14s WALL

 
   This run was terminated on:   0:13:35   9Mar2020            

=------------------------------------------------------------------------------=
   JOB DONE.
=------------------------------------------------------------------------------=
