
     Program PWSCF v.5.4.0 starts on 28Feb2020 at  0:16:43 

     This program is part of the open-source Quantum ESPRESSO suite
     for quantum simulation of materials; please cite
         "P. Giannozzi et al., J. Phys.:Condens. Matter 21 395502 (2009);
          URL http://www.quantum-espresso.org", 
     in publications or presentations arising from this work. More details at
     http://www.quantum-espresso.org/quote

     Parallel version (MPI & OpenMP), running on      16 processor cores
     Number of MPI processes:                16
     Threads/MPI process:                     1
     R & G space division:  proc/nbgrp/npool/nimage =      16
     Waiting for input...
     Reading input from standard input
Warning: card &IONS ignored
Warning: card / ignored
Warning: card &CELL ignored
Warning: card / ignored

     Current dimensions of program PWSCF are:
     Max number of different atomic species (ntypx) = 10
     Max number of k-points (npk) =  40000
     Max angular momentum in pseudopotentials (lmaxx) =  3

     Subspace diagonalization in iterative solution of the eigenvalue problem:
     a serial algorithm will be used

 
     Parallelization info
     --------------------
     sticks:   dense  smooth     PW     G-vecs:    dense   smooth      PW
     Min         272     272     74                11887    11887    1706
     Max         273     273     75                11890    11890    1709
     Sum        4357    4357   1189               190217   190217   27317
 

     Title: 
     Sn                                                                         


     bravais-lattice index     =            0
     lattice parameter (alat)  =       8.8993  a.u.
     unit-cell volume          =     498.3785 (a.u.)^3
     number of atoms/cell      =            2
     number of atomic types    =            1
     number of electrons       =        28.00
     number of Kohn-Sham states=           18
     kinetic-energy cutoff     =     200.0000  Ry
     charge density cutoff     =     800.0000  Ry
     convergence threshold     =      1.0E-06
     mixing beta               =       0.7000
     number of iterations used =            8  plain     mixing
     Exchange-correlation      = PBE ( 1  4  3  4 0 0)

     celldm(1)=   8.899346  celldm(2)=   0.000000  celldm(3)=   0.000000
     celldm(4)=   0.000000  celldm(5)=   0.000000  celldm(6)=   0.000000

     crystal axes: (cart. coord. in units of alat)
               a(1) = (   0.000000   0.707107   0.707107 )  
               a(2) = (   0.707107   0.000000   0.707107 )  
               a(3) = (   0.707107   0.707107   0.000000 )  

     reciprocal axes: (cart. coord. in units 2 pi/alat)
               b(1) = ( -0.707107  0.707107  0.707107 )  
               b(2) = (  0.707107 -0.707107  0.707107 )  
               b(3) = (  0.707107  0.707107 -0.707107 )  


     PseudoPot. # 1 for Sn read from file:
     ../PseudopotentialDatabase/Sn_ONCV_PBE_FR-1.1.upf
     MD5 check sum: 6dd2180f739ea5ae1610ead5e1628a0e
     Pseudo is Norm-conserving, Zval = 14.0
     Generated using ONCVPSP code by D. R. Hamann
     Using radial grid of  602 points,  6 beta functions with: 
                l(1) =   0
                l(2) =   0
                l(3) =   1
                l(4) =   1
                l(5) =   2
                l(6) =   2

     atomic species   valence    mass     pseudopotential
        Sn            14.00   118.71000     Sn( 1.00)

     24 Sym. Ops. (no inversion) found
          (note: 24 additional sym.ops. were found but ignored
           their fractional translations are incommensurate with FFT grid)

                                    s                        frac. trans.

      isym =  1     identity                                     

 cryst.   s( 1) = (     1          0          0      )
                  (     0          1          0      )
                  (     0          0          1      )

 cart.    s( 1) = (  1.0000000  0.0000000  0.0000000 )
                  (  0.0000000  1.0000000  0.0000000 )
                  (  0.0000000  0.0000000  1.0000000 )


      isym =  2     180 deg rotation - cart. axis [0,0,1]        

 cryst.   s( 2) = (     0          1         -1      )
                  (     1          0         -1      )
                  (     0          0         -1      )

 cart.    s( 2) = ( -1.0000000  0.0000000  0.0000000 )
                  (  0.0000000 -1.0000000  0.0000000 )
                  (  0.0000000  0.0000000  1.0000000 )


      isym =  3     180 deg rotation - cart. axis [0,1,0]        

 cryst.   s( 3) = (     0         -1          1      )
                  (     0         -1          0      )
                  (     1         -1          0      )

 cart.    s( 3) = ( -1.0000000  0.0000000  0.0000000 )
                  (  0.0000000  1.0000000  0.0000000 )
                  (  0.0000000  0.0000000 -1.0000000 )


      isym =  4     180 deg rotation - cart. axis [1,0,0]        

 cryst.   s( 4) = (    -1          0          0      )
                  (    -1          0          1      )
                  (    -1          1          0      )

 cart.    s( 4) = (  1.0000000  0.0000000  0.0000000 )
                  (  0.0000000 -1.0000000  0.0000000 )
                  (  0.0000000  0.0000000 -1.0000000 )


      isym =  5     120 deg rotation - cart. axis [-1,-1,-1]     

 cryst.   s( 5) = (     0          0          1      )
                  (     1          0          0      )
                  (     0          1          0      )

 cart.    s( 5) = (  0.0000000  1.0000000  0.0000000 )
                  (  0.0000000  0.0000000  1.0000000 )
                  (  1.0000000  0.0000000  0.0000000 )


      isym =  6     120 deg rotation - cart. axis [-1,1,1]       

 cryst.   s( 6) = (     1         -1          0      )
                  (     0         -1          1      )
                  (     0         -1          0      )

 cart.    s( 6) = (  0.0000000 -1.0000000  0.0000000 )
                  (  0.0000000  0.0000000  1.0000000 )
                  ( -1.0000000  0.0000000  0.0000000 )


      isym =  7     120 deg rotation - cart. axis [1,1,-1]       

 cryst.   s( 7) = (    -1          1          0      )
                  (    -1          0          0      )
                  (    -1          0          1      )

 cart.    s( 7) = (  0.0000000  1.0000000  0.0000000 )
                  (  0.0000000  0.0000000 -1.0000000 )
                  ( -1.0000000  0.0000000  0.0000000 )


      isym =  8     120 deg rotation - cart. axis [1,-1,1]       

 cryst.   s( 8) = (     0          0         -1      )
                  (     0          1         -1      )
                  (     1          0         -1      )

 cart.    s( 8) = (  0.0000000 -1.0000000  0.0000000 )
                  (  0.0000000  0.0000000 -1.0000000 )
                  (  1.0000000  0.0000000  0.0000000 )


      isym =  9     120 deg rotation - cart. axis [1,1,1]        

 cryst.   s( 9) = (     0          1          0      )
                  (     0          0          1      )
                  (     1          0          0      )

 cart.    s( 9) = (  0.0000000  0.0000000  1.0000000 )
                  (  1.0000000  0.0000000  0.0000000 )
                  (  0.0000000  1.0000000  0.0000000 )


      isym = 10     120 deg rotation - cart. axis [-1,1,-1]      

 cryst.   s(10) = (    -1          0          1      )
                  (    -1          1          0      )
                  (    -1          0          0      )

 cart.    s(10) = (  0.0000000  0.0000000  1.0000000 )
                  ( -1.0000000  0.0000000  0.0000000 )
                  (  0.0000000 -1.0000000  0.0000000 )


      isym = 11     120 deg rotation - cart. axis [1,-1,-1]      

 cryst.   s(11) = (     1          0         -1      )
                  (     0          0         -1      )
                  (     0          1         -1      )

 cart.    s(11) = (  0.0000000  0.0000000 -1.0000000 )
                  ( -1.0000000  0.0000000  0.0000000 )
                  (  0.0000000  1.0000000  0.0000000 )


      isym = 12     120 deg rotation - cart. axis [-1,-1,1]      

 cryst.   s(12) = (     0         -1          0      )
                  (     1         -1          0      )
                  (     0         -1          1      )

 cart.    s(12) = (  0.0000000  0.0000000 -1.0000000 )
                  (  1.0000000  0.0000000  0.0000000 )
                  (  0.0000000 -1.0000000  0.0000000 )


      isym = 13     inv. 180 deg rotation - cart. axis [1,1,0]   

 cryst.   s(13) = (     1          0         -1      )
                  (     0          1         -1      )
                  (     0          0         -1      )

 cart.    s(13) = (  0.0000000 -1.0000000  0.0000000 )
                  ( -1.0000000  0.0000000  0.0000000 )
                  (  0.0000000  0.0000000  1.0000000 )


      isym = 14     inv. 180 deg rotation - cart. axis [1,-1,0]  

 cryst.   s(14) = (     0          1          0      )
                  (     1          0          0      )
                  (     0          0          1      )

 cart.    s(14) = (  0.0000000  1.0000000  0.0000000 )
                  (  1.0000000  0.0000000  0.0000000 )
                  (  0.0000000  0.0000000  1.0000000 )


      isym = 15     inv.  90 deg rotation - cart. axis [0,0,-1]  

 cryst.   s(15) = (     0         -1          0      )
                  (     0         -1          1      )
                  (     1         -1          0      )

 cart.    s(15) = (  0.0000000 -1.0000000  0.0000000 )
                  (  1.0000000  0.0000000  0.0000000 )
                  (  0.0000000  0.0000000 -1.0000000 )


      isym = 16     inv.  90 deg rotation - cart. axis [0,0,1]   

 cryst.   s(16) = (    -1          0          1      )
                  (    -1          0          0      )
                  (    -1          1          0      )

 cart.    s(16) = (  0.0000000  1.0000000  0.0000000 )
                  ( -1.0000000  0.0000000  0.0000000 )
                  (  0.0000000  0.0000000 -1.0000000 )


      isym = 17     inv. 180 deg rotation - cart. axis [1,0,1]   

 cryst.   s(17) = (     1         -1          0      )
                  (     0         -1          0      )
                  (     0         -1          1      )

 cart.    s(17) = (  0.0000000  0.0000000 -1.0000000 )
                  (  0.0000000  1.0000000  0.0000000 )
                  ( -1.0000000  0.0000000  0.0000000 )


      isym = 18     inv. 180 deg rotation - cart. axis [-1,0,1]  

 cryst.   s(18) = (     0          0          1      )
                  (     0          1          0      )
                  (     1          0          0      )

 cart.    s(18) = (  0.0000000  0.0000000  1.0000000 )
                  (  0.0000000  1.0000000  0.0000000 )
                  (  1.0000000  0.0000000  0.0000000 )


      isym = 19     inv.  90 deg rotation - cart. axis [0,1,0]   

 cryst.   s(19) = (     0          0         -1      )
                  (     1          0         -1      )
                  (     0          1         -1      )

 cart.    s(19) = (  0.0000000  0.0000000 -1.0000000 )
                  (  0.0000000 -1.0000000  0.0000000 )
                  (  1.0000000  0.0000000  0.0000000 )


      isym = 20     inv.  90 deg rotation - cart. axis [0,-1,0]  

 cryst.   s(20) = (    -1          1          0      )
                  (    -1          0          1      )
                  (    -1          0          0      )

 cart.    s(20) = (  0.0000000  0.0000000  1.0000000 )
                  (  0.0000000 -1.0000000  0.0000000 )
                  ( -1.0000000  0.0000000  0.0000000 )


      isym = 21     inv. 180 deg rotation - cart. axis [0,1,1]   

 cryst.   s(21) = (    -1          0          0      )
                  (    -1          1          0      )
                  (    -1          0          1      )

 cart.    s(21) = (  1.0000000  0.0000000  0.0000000 )
                  (  0.0000000  0.0000000 -1.0000000 )
                  (  0.0000000 -1.0000000  0.0000000 )


      isym = 22     inv. 180 deg rotation - cart. axis [0,1,-1]  

 cryst.   s(22) = (     1          0          0      )
                  (     0          0          1      )
                  (     0          1          0      )

 cart.    s(22) = (  1.0000000  0.0000000  0.0000000 )
                  (  0.0000000  0.0000000  1.0000000 )
                  (  0.0000000  1.0000000  0.0000000 )


      isym = 23     inv.  90 deg rotation - cart. axis [-1,0,0]  

 cryst.   s(23) = (     0          1         -1      )
                  (     0          0         -1      )
                  (     1          0         -1      )

 cart.    s(23) = ( -1.0000000  0.0000000  0.0000000 )
                  (  0.0000000  0.0000000 -1.0000000 )
                  (  0.0000000  1.0000000  0.0000000 )


      isym = 24     inv.  90 deg rotation - cart. axis [1,0,0]   

 cryst.   s(24) = (     0         -1          1      )
                  (     1         -1          0      )
                  (     0         -1          0      )

 cart.    s(24) = ( -1.0000000  0.0000000  0.0000000 )
                  (  0.0000000  0.0000000  1.0000000 )
                  (  0.0000000 -1.0000000  0.0000000 )


   Cartesian axes

     site n.     atom                  positions (alat units)
         1           Sn  tau(   1) = (   0.0000000   0.0000000   0.0000000  )
         2           Sn  tau(   2) = (   0.3535534   0.3535534   0.3535534  )

   Crystallographic axes

     site n.     atom                  positions (cryst. coord.)
         1           Sn  tau(   1) = (  0.0000000  0.0000000  0.0000000  )
         2           Sn  tau(   2) = (  0.2500000  0.2500000  0.2500000  )

     number of k points=   120  gaussian smearing, width (Ry)=  0.0001
                       cart. coord. in units 2pi/alat
        k(    1) = (   0.0000000   0.0000000   0.0000000), wk =   0.0005926
        k(    2) = (   0.0471405   0.0471405  -0.0471405), wk =   0.0047407
        k(    3) = (   0.0942809   0.0942809  -0.0942809), wk =   0.0047407
        k(    4) = (   0.1414214   0.1414214  -0.1414214), wk =   0.0047407
        k(    5) = (   0.1885618   0.1885618  -0.1885618), wk =   0.0047407
        k(    6) = (   0.2357023   0.2357023  -0.2357023), wk =   0.0047407
        k(    7) = (   0.2828427   0.2828427  -0.2828427), wk =   0.0047407
        k(    8) = (   0.3299832   0.3299832  -0.3299832), wk =   0.0047407
        k(    9) = (   0.0942809   0.0000000   0.0000000), wk =   0.0035556
        k(   10) = (   0.1414214   0.0471405  -0.0471405), wk =   0.0142222
        k(   11) = (   0.1885618   0.0942809  -0.0942809), wk =   0.0142222
        k(   12) = (   0.2357023   0.1414214  -0.1414214), wk =   0.0142222
        k(   13) = (   0.2828427   0.1885618  -0.1885618), wk =   0.0142222
        k(   14) = (   0.3299832   0.2357023  -0.2357023), wk =   0.0142222
        k(   15) = (   0.3771236   0.2828427  -0.2828427), wk =   0.0142222
        k(   16) = (  -0.2828427  -0.3771236   0.3771236), wk =   0.0142222
        k(   17) = (  -0.2357023  -0.3299832   0.3299832), wk =   0.0142222
        k(   18) = (  -0.1885618  -0.2828427   0.2828427), wk =   0.0142222
        k(   19) = (  -0.1414214  -0.2357023   0.2357023), wk =   0.0142222
        k(   20) = (  -0.0942809  -0.1885618   0.1885618), wk =   0.0142222
        k(   21) = (  -0.0471405  -0.1414214   0.1414214), wk =   0.0142222
        k(   22) = (   0.0000000  -0.0942809   0.0942809), wk =   0.0071111
        k(   23) = (   0.1885618   0.0000000   0.0000000), wk =   0.0035556
        k(   24) = (   0.2357023   0.0471405  -0.0471405), wk =   0.0142222
        k(   25) = (   0.2828427   0.0942809  -0.0942809), wk =   0.0142222
        k(   26) = (   0.3299832   0.1414214  -0.1414214), wk =   0.0142222
        k(   27) = (   0.3771236   0.1885618  -0.1885618), wk =   0.0142222
        k(   28) = (   0.4242641   0.2357023  -0.2357023), wk =   0.0142222
        k(   29) = (  -0.2357023  -0.4242641   0.4242641), wk =   0.0142222
        k(   30) = (  -0.1885618  -0.3771236   0.3771236), wk =   0.0142222
        k(   31) = (  -0.1414214  -0.3299832   0.3299832), wk =   0.0142222
        k(   32) = (  -0.0942809  -0.2828427   0.2828427), wk =   0.0142222
        k(   33) = (  -0.0471405  -0.2357023   0.2357023), wk =   0.0142222
        k(   34) = (   0.0000000  -0.1885618   0.1885618), wk =   0.0071111
        k(   35) = (   0.2828427   0.0000000   0.0000000), wk =   0.0035556
        k(   36) = (   0.3299832   0.0471405  -0.0471405), wk =   0.0142222
        k(   37) = (   0.3771236   0.0942809  -0.0942809), wk =   0.0142222
        k(   38) = (   0.4242641   0.1414214  -0.1414214), wk =   0.0142222
        k(   39) = (   0.4714045   0.1885618  -0.1885618), wk =   0.0142222
        k(   40) = (  -0.1885618  -0.4714045   0.4714045), wk =   0.0142222
        k(   41) = (  -0.1414214  -0.4242641   0.4242641), wk =   0.0142222
        k(   42) = (  -0.0942809  -0.3771236   0.3771236), wk =   0.0142222
        k(   43) = (  -0.0471405  -0.3299832   0.3299832), wk =   0.0142222
        k(   44) = (   0.0000000  -0.2828427   0.2828427), wk =   0.0071111
        k(   45) = (   0.3771236   0.0000000   0.0000000), wk =   0.0035556
        k(   46) = (   0.4242641   0.0471405  -0.0471405), wk =   0.0142222
        k(   47) = (   0.4714045   0.0942809  -0.0942809), wk =   0.0142222
        k(   48) = (   0.5185450   0.1414214  -0.1414214), wk =   0.0142222
        k(   49) = (  -0.1414214  -0.5185450   0.5185450), wk =   0.0142222
        k(   50) = (  -0.0942809  -0.4714045   0.4714045), wk =   0.0142222
        k(   51) = (  -0.0471405  -0.4242641   0.4242641), wk =   0.0142222
        k(   52) = (  -0.0000000  -0.3771236   0.3771236), wk =   0.0071111
        k(   53) = (   0.4714045   0.0000000   0.0000000), wk =   0.0035556
        k(   54) = (   0.5185450   0.0471405  -0.0471405), wk =   0.0142222
        k(   55) = (   0.5656854   0.0942809  -0.0942809), wk =   0.0142222
        k(   56) = (  -0.0942809  -0.5656854   0.5656854), wk =   0.0142222
        k(   57) = (  -0.0471405  -0.5185450   0.5185450), wk =   0.0142222
        k(   58) = (  -0.0000000  -0.4714045   0.4714045), wk =   0.0071111
        k(   59) = (   0.5656854   0.0000000   0.0000000), wk =   0.0035556
        k(   60) = (   0.6128259   0.0471405  -0.0471405), wk =   0.0142222
        k(   61) = (  -0.0471405  -0.6128259   0.6128259), wk =   0.0142222
        k(   62) = (   0.0000000  -0.5656854   0.5656854), wk =   0.0071111
        k(   63) = (   0.6599663   0.0000000   0.0000000), wk =   0.0035556
        k(   64) = (   0.0000000  -0.6599663   0.6599663), wk =   0.0071111
        k(   65) = (   0.1885618   0.0942809  -0.0000000), wk =   0.0142222
        k(   66) = (   0.2357023   0.1414214  -0.0471405), wk =   0.0284444
        k(   67) = (   0.2828427   0.1885618  -0.0942809), wk =   0.0284444
        k(   68) = (   0.3299832   0.2357023  -0.1414214), wk =   0.0284444
        k(   69) = (   0.3771236   0.2828427  -0.1885618), wk =   0.0284444
        k(   70) = (  -0.2828427  -0.3771236   0.4714045), wk =   0.0284444
        k(   71) = (   0.2828427   0.0942809   0.0000000), wk =   0.0142222
        k(   72) = (   0.3299832   0.1414214  -0.0471405), wk =   0.0284444
        k(   73) = (   0.3771236   0.1885618  -0.0942809), wk =   0.0284444
        k(   74) = (   0.4242641   0.2357023  -0.1414214), wk =   0.0284444
        k(   75) = (  -0.2357023  -0.4242641   0.5185450), wk =   0.0284444
        k(   76) = (  -0.1885618  -0.3771236   0.4714045), wk =   0.0284444
        k(   77) = (  -0.1414214  -0.3299832   0.4242641), wk =   0.0284444
        k(   78) = (  -0.0942809  -0.2828427   0.3771236), wk =   0.0284444
        k(   79) = (  -0.0471405  -0.2357023   0.3299832), wk =   0.0284444
        k(   80) = (   0.0000000  -0.1885618   0.2828427), wk =   0.0142222
        k(   81) = (   0.3771236   0.0942809   0.0000000), wk =   0.0142222
        k(   82) = (   0.4242641   0.1414214  -0.0471405), wk =   0.0284444
        k(   83) = (   0.4714045   0.1885618  -0.0942809), wk =   0.0284444
        k(   84) = (  -0.1885618  -0.4714045   0.5656854), wk =   0.0284444
        k(   85) = (  -0.1414214  -0.4242641   0.5185450), wk =   0.0284444
        k(   86) = (  -0.0942809  -0.3771236   0.4714045), wk =   0.0284444
        k(   87) = (  -0.0471405  -0.3299832   0.4242641), wk =   0.0284444
        k(   88) = (   0.0000000  -0.2828427   0.3771236), wk =   0.0142222
        k(   89) = (   0.4714045   0.0942809  -0.0000000), wk =   0.0142222
        k(   90) = (   0.5185450   0.1414214  -0.0471405), wk =   0.0284444
        k(   91) = (  -0.1414214  -0.5185450   0.6128259), wk =   0.0284444
        k(   92) = (  -0.0942809  -0.4714045   0.5656854), wk =   0.0284444
        k(   93) = (  -0.0471405  -0.4242641   0.5185450), wk =   0.0284444
        k(   94) = (  -0.0000000  -0.3771236   0.4714045), wk =   0.0142222
        k(   95) = (   0.5656854   0.0942809   0.0000000), wk =   0.0142222
        k(   96) = (  -0.0942809  -0.5656854   0.6599663), wk =   0.0284444
        k(   97) = (  -0.0471405  -0.5185450   0.6128259), wk =   0.0284444
        k(   98) = (   0.0000000  -0.4714045   0.5656854), wk =   0.0142222
        k(   99) = (  -0.0471405  -0.6128259   0.7071068), wk =   0.0142222
        k(  100) = (   0.0000000  -0.5656854   0.6599663), wk =   0.0142222
        k(  101) = (   0.3771236   0.1885618  -0.0000000), wk =   0.0142222
        k(  102) = (   0.4242641   0.2357023  -0.0471405), wk =   0.0284444
        k(  103) = (  -0.2357023  -0.4242641   0.6128259), wk =   0.0284444
        k(  104) = (  -0.1885618  -0.3771236   0.5656854), wk =   0.0284444
        k(  105) = (   0.4714045   0.1885618  -0.0000000), wk =   0.0142222
        k(  106) = (  -0.1885618  -0.4714045   0.6599663), wk =   0.0284444
        k(  107) = (  -0.1414214  -0.4242641   0.6128259), wk =   0.0284444
        k(  108) = (  -0.0942809  -0.3771236   0.5656854), wk =   0.0284444
        k(  109) = (  -0.0471405  -0.3299832   0.5185450), wk =   0.0284444
        k(  110) = (   0.0000000  -0.2828427   0.4714045), wk =   0.0142222
        k(  111) = (  -0.1414214  -0.5185450   0.7071068), wk =   0.0142222
        k(  112) = (  -0.0942809  -0.4714045   0.6599663), wk =   0.0284444
        k(  113) = (  -0.0471405  -0.4242641   0.6128259), wk =   0.0284444
        k(  114) = (   0.0000000  -0.3771236   0.5656854), wk =   0.0142222
        k(  115) = (  -0.0471405  -0.5185450   0.7071068), wk =   0.0142222
        k(  116) = (   0.0000000  -0.4714045   0.6599663), wk =   0.0142222
        k(  117) = (  -0.1414214  -0.4242641   0.7071068), wk =   0.0142222
        k(  118) = (  -0.0942809  -0.3771236   0.6599663), wk =   0.0284444
        k(  119) = (  -0.0471405  -0.4242641   0.7071068), wk =   0.0142222
        k(  120) = (  -0.0000000  -0.3771236   0.6599663), wk =   0.0142222

                       cryst. coord.
        k(    1) = (   0.0000000   0.0000000   0.0000000), wk =   0.0005926
        k(    2) = (   0.0000000   0.0000000   0.0666667), wk =   0.0047407
        k(    3) = (   0.0000000   0.0000000   0.1333333), wk =   0.0047407
        k(    4) = (   0.0000000   0.0000000   0.2000000), wk =   0.0047407
        k(    5) = (   0.0000000   0.0000000   0.2666667), wk =   0.0047407
        k(    6) = (   0.0000000   0.0000000   0.3333333), wk =   0.0047407
        k(    7) = (   0.0000000   0.0000000   0.4000000), wk =   0.0047407
        k(    8) = (   0.0000000   0.0000000   0.4666667), wk =   0.0047407
        k(    9) = (   0.0000000   0.0666667   0.0666667), wk =   0.0035556
        k(   10) = (   0.0000000   0.0666667   0.1333333), wk =   0.0142222
        k(   11) = (   0.0000000   0.0666667   0.2000000), wk =   0.0142222
        k(   12) = (   0.0000000   0.0666667   0.2666667), wk =   0.0142222
        k(   13) = (   0.0000000   0.0666667   0.3333333), wk =   0.0142222
        k(   14) = (   0.0000000   0.0666667   0.4000000), wk =   0.0142222
        k(   15) = (   0.0000000   0.0666667   0.4666667), wk =   0.0142222
        k(   16) = (   0.0000000   0.0666667  -0.4666667), wk =   0.0142222
        k(   17) = (   0.0000000   0.0666667  -0.4000000), wk =   0.0142222
        k(   18) = (   0.0000000   0.0666667  -0.3333333), wk =   0.0142222
        k(   19) = (   0.0000000   0.0666667  -0.2666667), wk =   0.0142222
        k(   20) = (   0.0000000   0.0666667  -0.2000000), wk =   0.0142222
        k(   21) = (   0.0000000   0.0666667  -0.1333333), wk =   0.0142222
        k(   22) = (   0.0000000   0.0666667  -0.0666667), wk =   0.0071111
        k(   23) = (   0.0000000   0.1333333   0.1333333), wk =   0.0035556
        k(   24) = (   0.0000000   0.1333333   0.2000000), wk =   0.0142222
        k(   25) = (   0.0000000   0.1333333   0.2666667), wk =   0.0142222
        k(   26) = (   0.0000000   0.1333333   0.3333333), wk =   0.0142222
        k(   27) = (   0.0000000   0.1333333   0.4000000), wk =   0.0142222
        k(   28) = (   0.0000000   0.1333333   0.4666667), wk =   0.0142222
        k(   29) = (   0.0000000   0.1333333  -0.4666667), wk =   0.0142222
        k(   30) = (   0.0000000   0.1333333  -0.4000000), wk =   0.0142222
        k(   31) = (   0.0000000   0.1333333  -0.3333333), wk =   0.0142222
        k(   32) = (   0.0000000   0.1333333  -0.2666667), wk =   0.0142222
        k(   33) = (   0.0000000   0.1333333  -0.2000000), wk =   0.0142222
        k(   34) = (   0.0000000   0.1333333  -0.1333333), wk =   0.0071111
        k(   35) = (   0.0000000   0.2000000   0.2000000), wk =   0.0035556
        k(   36) = (   0.0000000   0.2000000   0.2666667), wk =   0.0142222
        k(   37) = (   0.0000000   0.2000000   0.3333333), wk =   0.0142222
        k(   38) = (   0.0000000   0.2000000   0.4000000), wk =   0.0142222
        k(   39) = (   0.0000000   0.2000000   0.4666667), wk =   0.0142222
        k(   40) = (   0.0000000   0.2000000  -0.4666667), wk =   0.0142222
        k(   41) = (   0.0000000   0.2000000  -0.4000000), wk =   0.0142222
        k(   42) = (   0.0000000   0.2000000  -0.3333333), wk =   0.0142222
        k(   43) = (   0.0000000   0.2000000  -0.2666667), wk =   0.0142222
        k(   44) = (   0.0000000   0.2000000  -0.2000000), wk =   0.0071111
        k(   45) = (   0.0000000   0.2666667   0.2666667), wk =   0.0035556
        k(   46) = (   0.0000000   0.2666667   0.3333333), wk =   0.0142222
        k(   47) = (   0.0000000   0.2666667   0.4000000), wk =   0.0142222
        k(   48) = (   0.0000000   0.2666667   0.4666667), wk =   0.0142222
        k(   49) = (   0.0000000   0.2666667  -0.4666667), wk =   0.0142222
        k(   50) = (   0.0000000   0.2666667  -0.4000000), wk =   0.0142222
        k(   51) = (   0.0000000   0.2666667  -0.3333333), wk =   0.0142222
        k(   52) = (   0.0000000   0.2666667  -0.2666667), wk =   0.0071111
        k(   53) = (   0.0000000   0.3333333   0.3333333), wk =   0.0035556
        k(   54) = (   0.0000000   0.3333333   0.4000000), wk =   0.0142222
        k(   55) = (   0.0000000   0.3333333   0.4666667), wk =   0.0142222
        k(   56) = (   0.0000000   0.3333333  -0.4666667), wk =   0.0142222
        k(   57) = (   0.0000000   0.3333333  -0.4000000), wk =   0.0142222
        k(   58) = (   0.0000000   0.3333333  -0.3333333), wk =   0.0071111
        k(   59) = (   0.0000000   0.4000000   0.4000000), wk =   0.0035556
        k(   60) = (   0.0000000   0.4000000   0.4666667), wk =   0.0142222
        k(   61) = (   0.0000000   0.4000000  -0.4666667), wk =   0.0142222
        k(   62) = (   0.0000000   0.4000000  -0.4000000), wk =   0.0071111
        k(   63) = (   0.0000000   0.4666667   0.4666667), wk =   0.0035556
        k(   64) = (   0.0000000   0.4666667  -0.4666667), wk =   0.0071111
        k(   65) = (   0.0666667   0.1333333   0.2000000), wk =   0.0142222
        k(   66) = (   0.0666667   0.1333333   0.2666667), wk =   0.0284444
        k(   67) = (   0.0666667   0.1333333   0.3333333), wk =   0.0284444
        k(   68) = (   0.0666667   0.1333333   0.4000000), wk =   0.0284444
        k(   69) = (   0.0666667   0.1333333   0.4666667), wk =   0.0284444
        k(   70) = (   0.0666667   0.1333333  -0.4666667), wk =   0.0284444
        k(   71) = (   0.0666667   0.2000000   0.2666667), wk =   0.0142222
        k(   72) = (   0.0666667   0.2000000   0.3333333), wk =   0.0284444
        k(   73) = (   0.0666667   0.2000000   0.4000000), wk =   0.0284444
        k(   74) = (   0.0666667   0.2000000   0.4666667), wk =   0.0284444
        k(   75) = (   0.0666667   0.2000000  -0.4666667), wk =   0.0284444
        k(   76) = (   0.0666667   0.2000000  -0.4000000), wk =   0.0284444
        k(   77) = (   0.0666667   0.2000000  -0.3333333), wk =   0.0284444
        k(   78) = (   0.0666667   0.2000000  -0.2666667), wk =   0.0284444
        k(   79) = (   0.0666667   0.2000000  -0.2000000), wk =   0.0284444
        k(   80) = (   0.0666667   0.2000000  -0.1333333), wk =   0.0142222
        k(   81) = (   0.0666667   0.2666667   0.3333333), wk =   0.0142222
        k(   82) = (   0.0666667   0.2666667   0.4000000), wk =   0.0284444
        k(   83) = (   0.0666667   0.2666667   0.4666667), wk =   0.0284444
        k(   84) = (   0.0666667   0.2666667  -0.4666667), wk =   0.0284444
        k(   85) = (   0.0666667   0.2666667  -0.4000000), wk =   0.0284444
        k(   86) = (   0.0666667   0.2666667  -0.3333333), wk =   0.0284444
        k(   87) = (   0.0666667   0.2666667  -0.2666667), wk =   0.0284444
        k(   88) = (   0.0666667   0.2666667  -0.2000000), wk =   0.0142222
        k(   89) = (   0.0666667   0.3333333   0.4000000), wk =   0.0142222
        k(   90) = (   0.0666667   0.3333333   0.4666667), wk =   0.0284444
        k(   91) = (   0.0666667   0.3333333  -0.4666667), wk =   0.0284444
        k(   92) = (   0.0666667   0.3333333  -0.4000000), wk =   0.0284444
        k(   93) = (   0.0666667   0.3333333  -0.3333333), wk =   0.0284444
        k(   94) = (   0.0666667   0.3333333  -0.2666667), wk =   0.0142222
        k(   95) = (   0.0666667   0.4000000   0.4666667), wk =   0.0142222
        k(   96) = (   0.0666667   0.4000000  -0.4666667), wk =   0.0284444
        k(   97) = (   0.0666667   0.4000000  -0.4000000), wk =   0.0284444
        k(   98) = (   0.0666667   0.4000000  -0.3333333), wk =   0.0142222
        k(   99) = (   0.0666667   0.4666667  -0.4666667), wk =   0.0142222
        k(  100) = (   0.0666667   0.4666667  -0.4000000), wk =   0.0142222
        k(  101) = (   0.1333333   0.2666667   0.4000000), wk =   0.0142222
        k(  102) = (   0.1333333   0.2666667   0.4666667), wk =   0.0284444
        k(  103) = (   0.1333333   0.2666667  -0.4666667), wk =   0.0284444
        k(  104) = (   0.1333333   0.2666667  -0.4000000), wk =   0.0284444
        k(  105) = (   0.1333333   0.3333333   0.4666667), wk =   0.0142222
        k(  106) = (   0.1333333   0.3333333  -0.4666667), wk =   0.0284444
        k(  107) = (   0.1333333   0.3333333  -0.4000000), wk =   0.0284444
        k(  108) = (   0.1333333   0.3333333  -0.3333333), wk =   0.0284444
        k(  109) = (   0.1333333   0.3333333  -0.2666667), wk =   0.0284444
        k(  110) = (   0.1333333   0.3333333  -0.2000000), wk =   0.0142222
        k(  111) = (   0.1333333   0.4000000  -0.4666667), wk =   0.0142222
        k(  112) = (   0.1333333   0.4000000  -0.4000000), wk =   0.0284444
        k(  113) = (   0.1333333   0.4000000  -0.3333333), wk =   0.0284444
        k(  114) = (   0.1333333   0.4000000  -0.2666667), wk =   0.0142222
        k(  115) = (   0.1333333   0.4666667  -0.4000000), wk =   0.0142222
        k(  116) = (   0.1333333   0.4666667  -0.3333333), wk =   0.0142222
        k(  117) = (   0.2000000   0.4000000  -0.4000000), wk =   0.0142222
        k(  118) = (   0.2000000   0.4000000  -0.3333333), wk =   0.0284444
        k(  119) = (   0.2000000   0.4666667  -0.3333333), wk =   0.0142222
        k(  120) = (   0.2000000   0.4666667  -0.2666667), wk =   0.0142222

     Dense  grid:   190217 G-vectors     FFT dimensions: (  81,  81,  81)

     Largest allocated arrays     est. size (Mb)     dimensions
        Kohn-Sham Wavefunctions         0.41 Mb     (    1489,   18)
        NL pseudopotentials             0.82 Mb     (    1489,   36)
        Each V/rho on FFT grid          0.60 Mb     (   39366)
        Each G-vector array             0.09 Mb     (   11889)
        G-vector shells                 0.01 Mb     (    1044)
     Largest temporary arrays     est. size (Mb)     dimensions
        Auxiliary wavefunctions         1.64 Mb     (    1489,   72)
        Each subspace H/S matrix        0.08 Mb     (      72,   72)
        Each <psi_i|beta_j> matrix      0.01 Mb     (      36,   18)
        Arrays for rho mixing           4.81 Mb     (   39366,    8)

     Initial potential from superposition of free atoms

     starting charge   27.82601, renormalised to   28.00000
     Starting wfc are random

     total cpu time spent up to now is        9.3 secs

     Self-consistent Calculation

     iteration #  1     ecut=   200.00 Ry     beta=0.70
     Davidson diagonalization with overlap
     ethr =  1.00E-02,  avg # of iterations =  7.0

     total cpu time spent up to now is       79.4 secs

     total energy              =    -233.14067541 Ry
     Harris-Foulkes estimate   =    -234.57556970 Ry
     estimated scf accuracy    <       2.29080465 Ry

     iteration #  2     ecut=   200.00 Ry     beta=0.70
     Davidson diagonalization with overlap
     ethr =  8.18E-03,  avg # of iterations =  2.0

     total cpu time spent up to now is      107.4 secs

     total energy              =    -233.44520272 Ry
     Harris-Foulkes estimate   =    -233.46932377 Ry
     estimated scf accuracy    <       0.06223402 Ry

     iteration #  3     ecut=   200.00 Ry     beta=0.70
     Davidson diagonalization with overlap
     ethr =  2.22E-04,  avg # of iterations =  2.2

     total cpu time spent up to now is      132.7 secs

     total energy              =    -233.44814911 Ry
     Harris-Foulkes estimate   =    -233.44896144 Ry
     estimated scf accuracy    <       0.00281984 Ry

     iteration #  4     ecut=   200.00 Ry     beta=0.70
     Davidson diagonalization with overlap
     ethr =  1.01E-05,  avg # of iterations =  2.0

     total cpu time spent up to now is      156.8 secs

     total energy              =    -233.44830020 Ry
     Harris-Foulkes estimate   =    -233.44829709 Ry
     estimated scf accuracy    <       0.00003088 Ry

     iteration #  5     ecut=   200.00 Ry     beta=0.70
     Davidson diagonalization with overlap
     ethr =  1.10E-07,  avg # of iterations =  2.3

     total cpu time spent up to now is      182.7 secs

     End of self-consistent calculation

          k = 0.0000 0.0000 0.0000 ( 23589 PWs)   bands (ev):

   -12.3739 -12.3739 -12.3739 -12.3221 -12.3221 -12.1098 -12.1098 -12.1098
   -12.1000 -12.1000  -2.4000   5.2264   8.6184   8.6184   8.6184  10.8764
    10.8764  10.8764

     occupation numbers 
     1.0000   1.0000   1.0000   1.0000   1.0000   1.0000   1.0000   1.0000
     1.0000   1.0000   1.0000   1.0000   0.0000   0.0000   0.0000   0.0000
     0.0000   0.0000

          k = 0.0471 0.0471-0.0471 ( 23727 PWs)   bands (ev):

   -12.3762 -12.3762 -12.3731 -12.3188 -12.3188 -12.1156 -12.1156 -12.1109
   -12.0948 -12.0948  -2.3622   5.0390   8.5383   8.5383   8.5882  10.9702
    10.9793  10.9793

     occupation numbers 
     1.0000   1.0000   1.0000   1.0000   1.0000   1.0000   1.0000   1.0000
     1.0000   1.0000   1.0000   1.0000   0.0000   0.0000   0.0000   0.0000
     0.0000   0.0000

          k = 0.0943 0.0943-0.0943 ( 23757 PWs)   bands (ev):

   -12.3815 -12.3815 -12.3708 -12.3110 -12.3110 -12.1243 -12.1243 -12.1139
   -12.0877 -12.0877  -2.2502   4.5530   8.3433   8.3433   8.4682  11.2331
    11.2331  11.3046

     occupation numbers 
     1.0000   1.0000   1.0000   1.0000   1.0000   1.0000   1.0000   1.0000
     1.0000   1.0000   1.0000   1.0000   0.0000   0.0000   0.0000   0.0000
     0.0000   0.0000

          k = 0.1414 0.1414-0.1414 ( 23760 PWs)   bands (ev):

   -12.3873 -12.3873 -12.3675 -12.3017 -12.3017 -12.1326 -12.1326 -12.1184
   -12.0816 -12.0816  -2.0684   3.9087   8.1098   8.1098   8.2721  11.5334
    11.5334  11.8869

     occupation numbers 
     1.0000   1.0000   1.0000   1.0000   1.0000   1.0000   1.0000   1.0000
     1.0000   1.0000   1.0000   1.0000   1.0000   1.0000   1.0000   0.0000
     0.0000   0.0000

          k = 0.1886 0.1886-0.1886 ( 23775 PWs)   bands (ev):

   -12.3922 -12.3922 -12.3636 -12.2931 -12.2931 -12.1394 -12.1394 -12.1237
   -12.0769 -12.0769  -1.8267   3.2184   7.8895   7.8895   8.0633  11.7947
    11.7947  12.6480

     occupation numbers 
     1.0000   1.0000   1.0000   1.0000   1.0000   1.0000   1.0000   1.0000
     1.0000   1.0000   1.0000   1.0000   1.0000   1.0000   1.0000   0.0000
     0.0000   0.0000

          k = 0.2357 0.2357-0.2357 ( 23712 PWs)   bands (ev):

   -12.3958 -12.3958 -12.3597 -12.2863 -12.2863 -12.1441 -12.1441 -12.1289
   -12.0737 -12.0737  -1.5454   2.5637   7.7095   7.7095   7.8864  11.9726
    11.9726  13.5157

     occupation numbers 
     1.0000   1.0000   1.0000   1.0000   1.0000   1.0000   1.0000   1.0000
     1.0000   1.0000   1.0000   1.0000   1.0000   1.0000   1.0000   0.0000
     0.0000   0.0000

          k = 0.2828 0.2828-0.2828 ( 23750 PWs)   bands (ev):

   -12.3981 -12.3981 -12.3565 -12.2820 -12.2820 -12.1469 -12.1469 -12.1331
   -12.0719 -12.0719  -1.2677   2.0221   7.5838   7.5838   7.7622  12.0677
    12.0677  14.3201

     occupation numbers 
     1.0000   1.0000   1.0000   1.0000   1.0000   1.0000   1.0000   1.0000
     1.0000   1.0000   1.0000   1.0000   1.0000   1.0000   1.0000   0.0000
     0.0000   0.0000

          k = 0.3300 0.3300-0.3300 ( 23789 PWs)   bands (ev):

   -12.3991 -12.3991 -12.3548 -12.2799 -12.2799 -12.1481 -12.1481 -12.1354
   -12.0710 -12.0710  -1.0781   1.6964   7.5194   7.5194   7.6986  12.1051
    12.1052  14.5145

     occupation numbers 
     1.0000   1.0000   1.0000   1.0000   1.0000   1.0000   1.0000   1.0000
     1.0000   1.0000   1.0000   1.0000   1.0000   1.0000   1.0000   0.0000
     0.0000   0.0000

          k = 0.0943 0.0000 0.0000 ( 23733 PWs)   bands (ev):

   -12.3757 -12.3757 -12.3754 -12.3196 -12.3157 -12.1249 -12.1073 -12.1073
   -12.1024 -12.0908  -2.3495   4.9838   8.3996   8.3996   8.8355  10.6842
    11.1581  11.1581

     occupation numbers 
     1.0000   1.0000   1.0000   1.0000   1.0000   1.0000   1.0000   1.0000
     1.0000   1.0000   1.0000   1.0000   0.0000   0.0000   0.0000   0.0000
     0.0000   0.0000

          k = 0.1414 0.0471-0.0471 ( 23760 PWs)   bands (ev):

   -12.3813 -12.3792 -12.3732 -12.3146 -12.3078 -12.1354 -12.1139 -12.1072
   -12.0963 -12.0851  -2.2620   4.6140   8.1650   8.1764   8.9450  10.6613
    11.4601  11.4900

     occupation numbers 
     1.0000   1.0000   1.0000   1.0000   1.0000   1.0000   1.0000   1.0000
     1.0000   1.0000   1.0000   1.0000   1.0000   1.0000   0.0000   0.0000
     0.0000   0.0000

          k = 0.1886 0.0943-0.0943 ( 23759 PWs)   bands (ev):

   -12.3880 -12.3845 -12.3693 -12.3064 -12.2979 -12.1450 -12.1227 -12.1111
   -12.0888 -12.0789  -2.1028   4.0424   7.8671   7.9382   8.8921  10.9000
    11.7874  11.9582

     occupation numbers 
     1.0000   1.0000   1.0000   1.0000   1.0000   1.0000   1.0000   1.0000
     1.0000   1.0000   1.0000   1.0000   1.0000   1.0000   0.0000   0.0000
     0.0000   0.0000

          k = 0.2357 0.1414-0.1414 ( 23783 PWs)   bands (ev):

   -12.3940 -12.3897 -12.3642 -12.2977 -12.2885 -12.1525 -12.1307 -12.1173
   -12.0826 -12.0734  -1.8795   3.3846   7.5652   7.7273   8.7482  11.2623
    12.0591  12.5332

     occupation numbers 
     1.0000   1.0000   1.0000   1.0000   1.0000   1.0000   1.0000   1.0000
     1.0000   1.0000   1.0000   1.0000   1.0000   1.0000   0.0000   0.0000
     0.0000   0.0000

          k = 0.2828 0.1886-0.1886 ( 23784 PWs)   bands (ev):

   -12.3988 -12.3940 -12.3586 -12.2899 -12.2814 -12.1570 -12.1376 -12.1245
   -12.0777 -12.0693  -1.6079   2.7287   7.3041   7.5660   8.5862  11.5915
    12.2276  13.2081

     occupation numbers 
     1.0000   1.0000   1.0000   1.0000   1.0000   1.0000   1.0000   1.0000
     1.0000   1.0000   1.0000   1.0000   1.0000   1.0000   0.0000   0.0000
     0.0000   0.0000

          k = 0.3300 0.2357-0.2357 ( 23773 PWs)   bands (ev):

   -12.4019 -12.3972 -12.3536 -12.2836 -12.2773 -12.1580 -12.1434 -12.1316
   -12.0739 -12.0668  -1.3215   2.1512   7.1040   7.4655   8.4478  11.8152
    12.2907  13.9344

     occupation numbers 
     1.0000   1.0000   1.0000   1.0000   1.0000   1.0000   1.0000   1.0000
     1.0000   1.0000   1.0000   1.0000   1.0000   1.0000   0.0000   0.0000
     0.0000   0.0000

          k = 0.3771 0.2828-0.2828 ( 23790 PWs)   bands (ev):

   -12.4035 -12.3993 -12.3501 -12.2791 -12.2764 -12.1556 -12.1481 -12.1373
   -12.0711 -12.0660  -1.0894   1.7456   6.9732   7.4308   8.3531  11.9506
    12.2773  14.4397

     occupation numbers 
     1.0000   1.0000   1.0000   1.0000   1.0000   1.0000   1.0000   1.0000
     1.0000   1.0000   1.0000   1.0000   1.0000   1.0000   0.0000   0.0000
     0.0000   0.0000

          k =-0.2828-0.3771 0.3771 ( 23807 PWs)   bands (ev):

   -12.4034 -12.4003 -12.3489 -12.2779 -12.2764 -12.1518 -12.1509 -12.1406
   -12.0693 -12.0667  -1.0184   1.6306   6.9160   7.4630   8.3112  12.0354
    12.2163  14.5466

     occupation numbers 
     1.0000   1.0000   1.0000   1.0000   1.0000   1.0000   1.0000   1.0000
     1.0000   1.0000   1.0000   1.0000   1.0000   1.0000   1.0000   0.0000
     0.0000   0.0000

          k =-0.2357-0.3300 0.3300 ( 23787 PWs)   bands (ev):

   -12.4019 -12.4003 -12.3503 -12.2813 -12.2760 -12.1539 -12.1466 -12.1391
   -12.0690 -12.0684  -1.1551   1.8555   6.9351   7.5596   8.3246  12.0826
    12.1172  14.3612

     occupation numbers 
     1.0000   1.0000   1.0000   1.0000   1.0000   1.0000   1.0000   1.0000
     1.0000   1.0000   1.0000   1.0000   1.0000   1.0000   0.7500   0.0000
     0.0000   0.0000

          k =-0.1886-0.2828 0.2828 ( 23761 PWs)   bands (ev):

   -12.3990 -12.3990 -12.3540 -12.2862 -12.2784 -12.1536 -12.1443 -12.1318
   -12.0727 -12.0688  -1.4161   2.3312   7.0326   7.7150   8.3902  11.9695
    12.0667  13.7086

     occupation numbers 
     1.0000   1.0000   1.0000   1.0000   1.0000   1.0000   1.0000   1.0000
     1.0000   1.0000   1.0000   1.0000   1.0000   1.0000   0.0000   0.0000
     0.0000   0.0000

          k =-0.1414-0.2357 0.2357 ( 23779 PWs)   bands (ev):

   -12.3963 -12.3946 -12.3591 -12.2926 -12.2841 -12.1503 -12.1409 -12.1229
   -12.0780 -12.0708  -1.7030   2.9433   7.2102   7.9183   8.4970  11.7564
    11.9191  12.9723

     occupation numbers 
     1.0000   1.0000   1.0000   1.0000   1.0000   1.0000   1.0000   1.0000
     1.0000   1.0000   1.0000   1.0000   1.0000   1.0000   0.0000   0.0000
     0.0000   0.0000

          k =-0.0943-0.1886 0.1886 ( 23789 PWs)   bands (ev):

   -12.3920 -12.3891 -12.3646 -12.3004 -12.2926 -12.1440 -12.1354 -12.1142
   -12.0846 -12.0744  -1.9609   3.6067   7.4673   8.1498   8.6195  11.4831
    11.5815  12.3863

     occupation numbers 
     1.0000   1.0000   1.0000   1.0000   1.0000   1.0000   1.0000   1.0000
     1.0000   1.0000   1.0000   1.0000   1.0000   1.0000   0.0000   0.0000
     0.0000   0.0000

          k =-0.0471-0.1414 0.1414 ( 23763 PWs)   bands (ev):

   -12.3864 -12.3829 -12.3694 -12.3087 -12.3027 -12.1355 -12.1284 -12.1068
   -12.0924 -12.0798  -2.1639   4.2443   7.7978   8.3733   8.7063  11.1874
    11.1998  11.9023

     occupation numbers 
     1.0000   1.0000   1.0000   1.0000   1.0000   1.0000   1.0000   1.0000
     1.0000   1.0000   1.0000   1.0000   1.0000   0.0000   0.0000   0.0000
     0.0000   0.0000

          k = 0.0000-0.0943 0.0943 ( 23758 PWs)   bands (ev):

   -12.3805 -12.3776 -12.3726 -12.3158 -12.3123 -12.1257 -12.1205 -12.1047
   -12.0978 -12.0867  -2.2996   4.7612   8.1788   8.5264   8.6915  10.9618
    10.9996  11.4222

     occupation numbers 
     1.0000   1.0000   1.0000   1.0000   1.0000   1.0000   1.0000   1.0000
     1.0000   1.0000   1.0000   1.0000   1.0000   0.0000   0.0000   0.0000
     0.0000   0.0000

          k = 0.1886 0.0000 0.0000 ( 23781 PWs)   bands (ev):

   -12.3808 -12.3808 -12.3774 -12.3123 -12.2995 -12.1487 -12.1094 -12.1003
   -12.1003 -12.0841  -2.1987   4.3981   7.9411   7.9411   9.3187  10.2954
    11.8026  11.8026

     occupation numbers 
     1.0000   1.0000   1.0000   1.0000   1.0000   1.0000   1.0000   1.0000
     1.0000   1.0000   1.0000   1.0000   1.0000   1.0000   0.0000   0.0000
     0.0000   0.0000

          k = 0.2357 0.0471-0.0471 ( 23769 PWs)   bands (ev):

   -12.3874 -12.3849 -12.3735 -12.3057 -12.2890 -12.1610 -12.1175 -12.1002
   -12.0930 -12.0799  -2.0627   3.9596   7.6503   7.7002   9.4682  10.2693
    12.1687  12.2130

     occupation numbers 
     1.0000   1.0000   1.0000   1.0000   1.0000   1.0000   1.0000   1.0000
     1.0000   1.0000   1.0000   1.0000   1.0000   1.0000   0.0000   0.0000
     0.0000   0.0000

          k = 0.2828 0.0943-0.0943 ( 23799 PWs)   bands (ev):

   -12.3952 -12.3897 -12.3665 -12.2973 -12.2787 -12.1710 -12.1267 -12.1070
   -12.0855 -12.0729  -1.8595   3.3929   7.2998   7.4925   9.4299  10.5539
    12.4770  12.6329

     occupation numbers 
     1.0000   1.0000   1.0000   1.0000   1.0000   1.0000   1.0000   1.0000
     1.0000   1.0000   1.0000   1.0000   1.0000   1.0000   0.0000   0.0000
     0.0000   0.0000

          k = 0.3300 0.1414-0.1414 ( 23800 PWs)   bands (ev):

   -12.4020 -12.3942 -12.3581 -12.2887 -12.2706 -12.1775 -12.1356 -12.1167
   -12.0791 -12.0662  -1.6011   2.7850   6.9613   7.3391   9.3002  10.9900
    12.6694  13.0017

     occupation numbers 
     1.0000   1.0000   1.0000   1.0000   1.0000   1.0000   1.0000   1.0000
     1.0000   1.0000   1.0000   1.0000   1.0000   1.0000   0.0000   0.0000
     0.0000   0.0000

          k = 0.3771 0.1886-0.1886 ( 23803 PWs)   bands (ev):

   -12.4073 -12.3979 -12.3494 -12.2809 -12.2663 -12.1794 -12.1439 -12.1272
   -12.0738 -12.0610  -1.3130   2.2116   6.6799   7.2510   9.1587  11.4029
    12.7322  13.3988

     occupation numbers 
     1.0000   1.0000   1.0000   1.0000   1.0000   1.0000   1.0000   1.0000
     1.0000   1.0000   1.0000   1.0000   1.0000   1.0000   0.0000   0.0000
     0.0000   0.0000

          k = 0.4243 0.2357-0.2357 ( 23794 PWs)   bands (ev):

   -12.4106 -12.4007 -12.3421 -12.2742 -12.2663 -12.1762 -12.1516 -12.1368
   -12.0696 -12.0580  -1.0496   1.7586   6.4748   7.2328   9.0428  11.6927
    12.6919  13.8894

     occupation numbers 
     1.0000   1.0000   1.0000   1.0000   1.0000   1.0000   1.0000   1.0000
     1.0000   1.0000   1.0000   1.0000   1.0000   1.0000   0.0000   0.0000
     0.0000   0.0000

          k =-0.2357-0.4243 0.4243 ( 23814 PWs)   bands (ev):

   -12.4118 -12.4026 -12.3377 -12.2699 -12.2691 -12.1686 -12.1583 -12.1440
   -12.0665 -12.0573  -0.9125   1.5443   6.3545   7.2848   8.9687  11.8753
    12.5837  14.2945

     occupation numbers 
     1.0000   1.0000   1.0000   1.0000   1.0000   1.0000   1.0000   1.0000
     1.0000   1.0000   1.0000   1.0000   1.0000   1.0000   0.0000   0.0000
     0.0000   0.0000

          k =-0.1886-0.3771 0.3771 ( 23810 PWs)   bands (ev):

   -12.4107 -12.4033 -12.3372 -12.2756 -12.2664 -12.1631 -12.1578 -12.1479
   -12.0645 -12.0593  -0.9881   1.6609   6.3253   7.4035   8.9404  11.9992
    12.4263  14.2234

     occupation numbers 
     1.0000   1.0000   1.0000   1.0000   1.0000   1.0000   1.0000   1.0000
     1.0000   1.0000   1.0000   1.0000   1.0000   1.0000   0.0000   0.0000
     0.0000   0.0000

          k =-0.1414-0.3300 0.3300 ( 23778 PWs)   bands (ev):

   -12.4075 -12.4027 -12.3411 -12.2821 -12.2673 -12.1647 -12.1497 -12.1437
   -12.0641 -12.0639  -1.2250   2.0528   6.3939   7.5807   8.9523  12.0615
    12.2181  13.6583

     occupation numbers 
     1.0000   1.0000   1.0000   1.0000   1.0000   1.0000   1.0000   1.0000
     1.0000   1.0000   1.0000   1.0000   1.0000   1.0000   0.0000   0.0000
     0.0000   0.0000

          k =-0.0943-0.2828 0.2828 ( 23774 PWs)   bands (ev):

   -12.4023 -12.4007 -12.3481 -12.2889 -12.2724 -12.1622 -12.1473 -12.1302
   -12.0709 -12.0653  -1.5131   2.5946   6.5690   7.8017   8.9850  11.9530
    11.9673  13.0835

     occupation numbers 
     1.0000   1.0000   1.0000   1.0000   1.0000   1.0000   1.0000   1.0000
     1.0000   1.0000   1.0000   1.0000   1.0000   1.0000   0.0000   0.0000
     0.0000   0.0000

          k =-0.0471-0.2357 0.2357 ( 23817 PWs)   bands (ev):

   -12.3971 -12.3956 -12.3565 -12.2959 -12.2812 -12.1556 -12.1428 -12.1169
   -12.0801 -12.0684  -1.7841   3.1900   6.8603   8.0408   8.9965  11.6383
    11.6482  12.7367

     occupation numbers 
     1.0000   1.0000   1.0000   1.0000   1.0000   1.0000   1.0000   1.0000
     1.0000   1.0000   1.0000   1.0000   1.0000   1.0000   0.0000   0.0000
     0.0000   0.0000

          k = 0.0000-0.1886 0.1886 ( 23776 PWs)   bands (ev):

   -12.3921 -12.3884 -12.3643 -12.3028 -12.2920 -12.1463 -12.1362 -12.1061
   -12.0901 -12.0733  -2.0061   3.7641   7.2737   8.2535   8.9176  11.3076
    11.3650  12.4080

     occupation numbers 
     1.0000   1.0000   1.0000   1.0000   1.0000   1.0000   1.0000   1.0000
     1.0000   1.0000   1.0000   1.0000   1.0000   1.0000   0.0000   0.0000
     0.0000   0.0000

          k = 0.2828 0.0000 0.0000 ( 23780 PWs)   bands (ev):

   -12.3878 -12.3878 -12.3762 -12.3004 -12.2773 -12.1764 -12.1208 -12.0903
   -12.0903 -12.0839  -1.9494   3.6638   7.4565   7.4565   9.7904   9.9151
    12.5875  12.5875

     occupation numbers 
     1.0000   1.0000   1.0000   1.0000   1.0000   1.0000   1.0000   1.0000
     1.0000   1.0000   1.0000   1.0000   1.0000   1.0000   0.0000   0.0000
     0.0000   0.0000

          k = 0.3300 0.0471-0.0471 ( 23793 PWs)   bands (ev):

   -12.3944 -12.3920 -12.3704 -12.2924 -12.2655 -12.1897 -12.1290 -12.0958
   -12.0840 -12.0766  -1.7670   3.2160   7.1650   7.2460   9.8321   9.9866
    12.9459  12.9587

     occupation numbers 
     1.0000   1.0000   1.0000   1.0000   1.0000   1.0000   1.0000   1.0000
     1.0000   1.0000   1.0000   1.0000   1.0000   1.0000   0.0000   0.0000
     0.0000   0.0000

          k = 0.3771 0.0943-0.0943 ( 23794 PWs)   bands (ev):

   -12.4026 -12.3962 -12.3601 -12.2834 -12.2556 -12.1994 -12.1386 -12.1080
   -12.0775 -12.0667  -1.5243   2.6922   6.7987   7.0909   9.7464  10.3709
    13.0993  13.2105

     occupation numbers 
     1.0000   1.0000   1.0000   1.0000   1.0000   1.0000   1.0000   1.0000
     1.0000   1.0000   1.0000   1.0000   1.0000   1.0000   0.0000   0.0000
     0.0000   0.0000

          k = 0.4243 0.1414-0.1414 ( 23822 PWs)   bands (ev):

   -12.4100 -12.4000 -12.3482 -12.2745 -12.2498 -12.2040 -12.1484 -12.1217
   -12.0717 -12.0585  -1.2402   2.1617   6.4454   7.0030   9.6263  10.9069
    13.1630  13.3091

     occupation numbers 
     1.0000   1.0000   1.0000   1.0000   1.0000   1.0000   1.0000   1.0000
     1.0000   1.0000   1.0000   1.0000   1.0000   1.0000   0.0000   0.0000
     0.0000   0.0000

          k = 0.4714 0.1886-0.1886 ( 23814 PWs)   bands (ev):

   -12.4155 -12.4030 -12.3369 -12.2661 -12.2496 -12.2024 -12.1580 -12.1346
   -12.0670 -12.0525  -0.9562   1.6996   6.1592   6.9877   9.5176  11.4339
    13.2707  13.3362

     occupation numbers 
     1.0000   1.0000   1.0000   1.0000   1.0000   1.0000   1.0000   1.0000
     1.0000   1.0000   1.0000   1.0000   1.0000   1.0000   0.0000   0.0000
     0.0000   0.0000

          k =-0.1886-0.4714 0.4714 ( 23819 PWs)   bands (ev):

   -12.4186 -12.4051 -12.3284 -12.2591 -12.2545 -12.1951 -12.1669 -12.1445
   -12.0634 -12.0495  -0.7616   1.4144   5.9653   7.0454   9.4409  11.8152
    13.1335  13.6831

     occupation numbers 
     1.0000   1.0000   1.0000   1.0000   1.0000   1.0000   1.0000   1.0000
     1.0000   1.0000   1.0000   1.0000   1.0000   1.0000   0.0000   0.0000
     0.0000   0.0000

          k =-0.1414-0.4243 0.4243 ( 23834 PWs)   bands (ev):

   -12.4189 -12.4062 -12.3247 -12.2632 -12.2545 -12.1831 -12.1737 -12.1499
   -12.0611 -12.0497  -0.7726   1.4303   5.8784   7.1721   9.3993  12.0471
    12.9243  13.8838

     occupation numbers 
     1.0000   1.0000   1.0000   1.0000   1.0000   1.0000   1.0000   1.0000
     1.0000   1.0000   1.0000   1.0000   1.0000   1.0000   0.0000   0.0000
     0.0000   0.0000

          k =-0.0943-0.3771 0.3771 ( 23811 PWs)   bands (ev):

   -12.4164 -12.4061 -12.3268 -12.2733 -12.2543 -12.1765 -12.1684 -12.1504
   -12.0603 -12.0534  -0.9802   1.7349   5.9110   7.3586   9.3800  12.1904
    12.6504  13.4924

     occupation numbers 
     1.0000   1.0000   1.0000   1.0000   1.0000   1.0000   1.0000   1.0000
     1.0000   1.0000   1.0000   1.0000   1.0000   1.0000   0.0000   0.0000
     0.0000   0.0000

          k =-0.0471-0.3300 0.3300 ( 23792 PWs)   bands (ev):

   -12.4111 -12.4045 -12.3344 -12.2824 -12.2596 -12.1736 -12.1561 -12.1436
   -12.0612 -12.0603  -1.2660   2.1951   6.0775   7.5882   9.3492  12.1855
    12.3175  12.9882

     occupation numbers 
     1.0000   1.0000   1.0000   1.0000   1.0000   1.0000   1.0000   1.0000
     1.0000   1.0000   1.0000   1.0000   1.0000   1.0000   0.0000   0.0000
     0.0000   0.0000

          k = 0.0000-0.2828 0.2828 ( 23782 PWs)   bands (ev):

   -12.4038 -12.4015 -12.3454 -12.2898 -12.2694 -12.1660 -12.1494 -12.1293
   -12.0699 -12.0639  -1.5467   2.7031   6.3918   7.8316   9.2440  11.8965
    11.9587  12.8301

     occupation numbers 
     1.0000   1.0000   1.0000   1.0000   1.0000   1.0000   1.0000   1.0000
     1.0000   1.0000   1.0000   1.0000   1.0000   1.0000   0.0000   0.0000
     0.0000   0.0000

          k = 0.3771 0.0000 0.0000 ( 23792 PWs)   bands (ev):

   -12.3954 -12.3954 -12.3704 -12.2846 -12.2516 -12.2065 -12.1360 -12.0902
   -12.0793 -12.0793  -1.6047   2.8809   7.0291   7.0291   9.6202  10.0364
    13.4151  13.4151

     occupation numbers 
     1.0000   1.0000   1.0000   1.0000   1.0000   1.0000   1.0000   1.0000
     1.0000   1.0000   1.0000   1.0000   1.0000   1.0000   0.0000   0.0000
     0.0000   0.0000

          k = 0.4243 0.0471-0.0471 ( 23795 PWs)   bands (ev):

   -12.4014 -12.3991 -12.3622 -12.2753 -12.2392 -12.2200 -12.1454 -12.1011
   -12.0737 -12.0698  -1.3788   2.4485   6.7615   6.8661   9.6511  10.0784
    13.6074  13.7604

     occupation numbers 
     1.0000   1.0000   1.0000   1.0000   1.0000   1.0000   1.0000   1.0000
     1.0000   1.0000   1.0000   1.0000   1.0000   1.0000   0.0000   0.0000
     0.0000   0.0000

          k = 0.4714 0.0943-0.0943 ( 23794 PWs)   bands (ev):

   -12.4094 -12.4025 -12.3490 -12.2655 -12.2324 -12.2267 -12.1558 -12.1166
   -12.0684 -12.0596  -1.1030   1.9808   6.4019   6.7704   9.7089  10.3764
    13.5101  13.9341

     occupation numbers 
     1.0000   1.0000   1.0000   1.0000   1.0000   1.0000   1.0000   1.0000
     1.0000   1.0000   1.0000   1.0000   1.0000   1.0000   0.0000   0.0000
     0.0000   0.0000

          k = 0.5185 0.1414-0.1414 ( 23814 PWs)   bands (ev):

   -12.4167 -12.4053 -12.3346 -12.2560 -12.2351 -12.2231 -12.1665 -12.1325
   -12.0639 -12.0512  -0.8076   1.5397   6.0541   6.7483   9.6623  10.9755
    13.4046  13.9295

     occupation numbers 
     1.0000   1.0000   1.0000   1.0000   1.0000   1.0000   1.0000   1.0000
     1.0000   1.0000   1.0000   1.0000   1.0000   1.0000   0.0000   0.0000
     0.0000   0.0000

          k =-0.1414-0.5185 0.5185 ( 23804 PWs)   bands (ev):

   -12.4218 -12.4074 -12.3228 -12.2474 -12.2361 -12.2209 -12.1768 -12.1451
   -12.0606 -12.0455  -0.5662   1.2163   5.7849   6.8011   9.6190  11.6460
    13.3917  13.7810

     occupation numbers 
     1.0000   1.0000   1.0000   1.0000   1.0000   1.0000   1.0000   1.0000
     1.0000   1.0000   1.0000   1.0000   1.0000   1.0000   0.0000   0.0000
     0.0000   0.0000

          k =-0.0943-0.4714 0.4714 ( 23808 PWs)   bands (ev):

   -12.4240 -12.4085 -12.3164 -12.2437 -12.2413 -12.2116 -12.1850 -12.1518
   -12.0584 -12.0435  -0.5156   1.1532   5.6304   6.9251   9.6006  12.1949
    13.4575  13.5224

     occupation numbers 
     1.0000   1.0000   1.0000   1.0000   1.0000   1.0000   1.0000   1.0000
     1.0000   1.0000   1.0000   1.0000   1.0000   1.0000   0.0000   0.0000
     0.0000   0.0000

          k =-0.0471-0.4243 0.4243 ( 23817 PWs)   bands (ev):

   -12.4229 -12.4085 -12.3164 -12.2580 -12.2411 -12.1939 -12.1877 -12.1533
   -12.0578 -12.0453  -0.6969   1.3868   5.6152   7.1111   9.5888  12.5168
    13.1720  13.2654

     occupation numbers 
     1.0000   1.0000   1.0000   1.0000   1.0000   1.0000   1.0000   1.0000
     1.0000   1.0000   1.0000   1.0000   1.0000   1.0000   0.0000   0.0000
     0.0000   0.0000

          k =-0.0000-0.3771 0.3771 ( 23820 PWs)   bands (ev):

   -12.4184 -12.4072 -12.3227 -12.2722 -12.2481 -12.1831 -12.1732 -12.1510
   -12.0587 -12.0512  -0.9799   1.7732   5.7595   7.3420   9.5326  12.5610
    12.7525  12.9025

     occupation numbers 
     1.0000   1.0000   1.0000   1.0000   1.0000   1.0000   1.0000   1.0000
     1.0000   1.0000   1.0000   1.0000   1.0000   1.0000   0.0000   0.0000
     0.0000   0.0000

          k = 0.4714 0.0000 0.0000 ( 23848 PWs)   bands (ev):

   -12.4023 -12.4023 -12.3593 -12.2656 -12.2375 -12.2239 -12.1545 -12.1026
   -12.0691 -12.0691  -1.1689   2.0958   6.6918   6.6918   9.4367   9.9976
    14.2239  14.2239

     occupation numbers 
     1.0000   1.0000   1.0000   1.0000   1.0000   1.0000   1.0000   1.0000
     1.0000   1.0000   1.0000   1.0000   1.0000   1.0000   0.0000   0.0000
     0.0000   0.0000

          k = 0.5185 0.0471-0.0471 ( 23813 PWs)   bands (ev):

   -12.4074 -12.4051 -12.3486 -12.2552 -12.2506 -12.2116 -12.1650 -12.1148
   -12.0648 -12.0620  -0.9038   1.6896   6.4625   6.5836   9.5140   9.9879
    14.2619  14.5118

     occupation numbers 
     1.0000   1.0000   1.0000   1.0000   1.0000   1.0000   1.0000   1.0000
     1.0000   1.0000   1.0000   1.0000   1.0000   1.0000   0.0000   0.0000
     0.0000   0.0000

          k = 0.5657 0.0943-0.0943 ( 23804 PWs)   bands (ev):

   -12.4146 -12.4075 -12.3333 -12.2578 -12.2447 -12.2042 -12.1762 -12.1317
   -12.0611 -12.0533  -0.6043   1.2824   6.1287   6.5491   9.5997  10.3348
    14.0632  14.5776

     occupation numbers 
     1.0000   1.0000   1.0000   1.0000   1.0000   1.0000   1.0000   1.0000
     1.0000   1.0000   1.0000   1.0000   1.0000   1.0000   0.0000   0.0000
     0.0000   0.0000

          k =-0.0943-0.5657 0.5657 ( 23831 PWs)   bands (ev):

   -12.4211 -12.4091 -12.3189 -12.2562 -12.2349 -12.2052 -12.1874 -12.1465
   -12.0584 -12.0460  -0.3272   0.9455   5.8105   6.5904   9.6026  11.0110
    13.8570  14.4369

     occupation numbers 
     1.0000   1.0000   1.0000   1.0000   1.0000   1.0000   1.0000   1.0000
     1.0000   1.0000   1.0000   1.0000   1.0000   1.0000   0.0000   0.0000
     0.0000   0.0000

          k =-0.0471-0.5185 0.5185 ( 23818 PWs)   bands (ev):

   -12.4252 -12.4099 -12.3115 -12.2428 -12.2280 -12.2176 -12.1962 -12.1539
   -12.0569 -12.0417  -0.2301   0.8376   5.5889   6.7048   9.6158  11.7924
    13.6287  14.1287

     occupation numbers 
     1.0000   1.0000   1.0000   1.0000   1.0000   1.0000   1.0000   1.0000
     1.0000   1.0000   1.0000   1.0000   1.0000   1.0000   0.0000   0.0000
     0.0000   0.0000

          k =-0.0000-0.4714 0.4714 ( 23840 PWs)   bands (ev):

   -12.4259 -12.4098 -12.3113 -12.2378 -12.2303 -12.2199 -12.1962 -12.1549
   -12.0566 -12.0413  -0.4107   1.0471   5.5131   6.8837   9.6322  12.4696
    13.3063  13.6903

     occupation numbers 
     1.0000   1.0000   1.0000   1.0000   1.0000   1.0000   1.0000   1.0000
     1.0000   1.0000   1.0000   1.0000   1.0000   1.0000   0.0000   0.0000
     0.0000   0.0000

          k = 0.5657 0.0000 0.0000 ( 23864 PWs)   bands (ev):

   -12.4074 -12.4074 -12.3429 -12.2679 -12.2442 -12.1957 -12.1755 -12.1204
   -12.0615 -12.0615  -0.6484   1.3342   6.4605   6.4605   9.3722   9.7968
    14.9326  14.9327

     occupation numbers 
     1.0000   1.0000   1.0000   1.0000   1.0000   1.0000   1.0000   1.0000
     1.0000   1.0000   1.0000   1.0000   1.0000   1.0000   0.0000   0.0000
     0.0000   0.0000

          k = 0.6128 0.0471-0.0471 ( 23835 PWs)   bands (ev):

   -12.4113 -12.4091 -12.3300 -12.2798 -12.2330 -12.1869 -12.1841 -12.1342
   -12.0588 -12.0565  -0.3495   0.9605   6.2793   6.4103   9.4803   9.8097
    14.8889  15.1039

     occupation numbers 
     1.0000   1.0000   1.0000   1.0000   1.0000   1.0000   1.0000   1.0000
     1.0000   1.0000   1.0000   1.0000   1.0000   1.0000   0.0000   0.0000
     0.0000   0.0000

          k =-0.0471-0.6128 0.6128 ( 23813 PWs)   bands (ev):

   -12.4173 -12.4101 -12.3147 -12.2830 -12.2223 -12.1985 -12.1807 -12.1499
   -12.0571 -12.0497  -0.0470   0.6235   5.9899   6.4364   9.5387  10.2749
    14.5934  14.9971

     occupation numbers 
     1.0000   1.0000   1.0000   1.0000   1.0000   1.0000   1.0000   1.0000
     1.0000   1.0000   1.0000   1.0000   1.0000   1.0000   0.0000   0.0000
     0.0000   0.0000

          k = 0.0000-0.5657 0.5657 ( 23800 PWs)   bands (ev):

   -12.4226 -12.4105 -12.3092 -12.2686 -12.2174 -12.2049 -12.1943 -12.1553
   -12.0564 -12.0441   0.0266   0.5538   5.7279   6.5370   9.5730  11.0122
    14.1619  14.6493

     occupation numbers 
     1.0000   1.0000   1.0000   1.0000   1.0000   1.0000   1.0000   1.0000
     1.0000   1.0000   1.0000   1.0000   1.0000   1.0000   0.0000   0.0000
     0.0000   0.0000

          k = 0.6600 0.0000 0.0000 ( 23812 PWs)   bands (ev):

   -12.4101 -12.4101 -12.3217 -12.2964 -12.2214 -12.1981 -12.1681 -12.1426
   -12.0574 -12.0574  -0.0508   0.6140   6.3430   6.3430   9.4243   9.5782
    15.3861  15.3862

     occupation numbers 
     1.0000   1.0000   1.0000   1.0000   1.0000   1.0000   1.0000   1.0000
     1.0000   1.0000   1.0000   1.0000   1.0000   1.0000   0.0000   0.0000
     0.0000   0.0000

          k = 0.0000-0.6600 0.6600 ( 23814 PWs)   bands (ev):

   -12.4127 -12.4105 -12.3095 -12.3040 -12.2106 -12.2092 -12.1605 -12.1551
   -12.0568 -12.0545   0.2470   0.3050   6.2177   6.3519   9.5009   9.7066
    15.1954  15.3449

     occupation numbers 
     1.0000   1.0000   1.0000   1.0000   1.0000   1.0000   1.0000   1.0000
     1.0000   1.0000   1.0000   1.0000   1.0000   1.0000   0.0000   0.0000
     0.0000   0.0000

          k = 0.1886 0.0943-0.0000 ( 23772 PWs)   bands (ev):

   -12.3862 -12.3828 -12.3714 -12.3093 -12.2984 -12.1468 -12.1201 -12.1004
   -12.0975 -12.0798  -2.1504   4.2174   7.7218   8.0982   9.1223  10.6093
    11.6594  12.0018

     occupation numbers 
     1.0000   1.0000   1.0000   1.0000   1.0000   1.0000   1.0000   1.0000
     1.0000   1.0000   1.0000   1.0000   1.0000   1.0000   0.0000   0.0000
     0.0000   0.0000

          k = 0.2357 0.1414-0.0471 ( 23794 PWs)   bands (ev):

   -12.3925 -12.3887 -12.3658 -12.3016 -12.2880 -12.1569 -12.1283 -12.1078
   -12.0881 -12.0738  -1.9692   3.6651   7.3144   7.9337   9.1504  10.8264
    11.9636  12.4469

     occupation numbers 
     1.0000   1.0000   1.0000   1.0000   1.0000   1.0000   1.0000   1.0000
     1.0000   1.0000   1.0000   1.0000   1.0000   1.0000   0.0000   0.0000
     0.0000   0.0000

          k = 0.2828 0.1886-0.0943 ( 23800 PWs)   bands (ev):

   -12.3985 -12.3942 -12.3584 -12.2936 -12.2786 -12.1644 -12.1356 -12.1180
   -12.0797 -12.0687  -1.7278   3.0473   6.9835   7.7322   9.0726  11.2006
    12.2663  12.8319

     occupation numbers 
     1.0000   1.0000   1.0000   1.0000   1.0000   1.0000   1.0000   1.0000
     1.0000   1.0000   1.0000   1.0000   1.0000   1.0000   0.0000   0.0000
     0.0000   0.0000

          k = 0.3300 0.2357-0.1414 ( 23789 PWs)   bands (ev):

   -12.4036 -12.3982 -12.3508 -12.2862 -12.2721 -12.1682 -12.1416 -12.1293
   -12.0733 -12.0647  -1.4459   2.4417   6.7389   7.5484   8.9635  11.5586
    12.4263  13.3144

     occupation numbers 
     1.0000   1.0000   1.0000   1.0000   1.0000   1.0000   1.0000   1.0000
     1.0000   1.0000   1.0000   1.0000   1.0000   1.0000   0.0000   0.0000
     0.0000   0.0000

          k = 0.3771 0.2828-0.1886 ( 23790 PWs)   bands (ev):

   -12.4073 -12.4008 -12.3445 -12.2798 -12.2693 -12.1677 -12.1470 -12.1393
   -12.0691 -12.0618  -1.1659   1.9281   6.5792   7.4133   8.8722  11.7897
    12.4670  13.9063

     occupation numbers 
     1.0000   1.0000   1.0000   1.0000   1.0000   1.0000   1.0000   1.0000
     1.0000   1.0000   1.0000   1.0000   1.0000   1.0000   0.0000   0.0000
     0.0000   0.0000

          k =-0.2828-0.3771 0.4714 ( 23802 PWs)   bands (ev):

   -12.4092 -12.4020 -12.3409 -12.2748 -12.2700 -12.1638 -12.1537 -12.1441
   -12.0671 -12.0603  -0.9729   1.6133   6.5007   7.3423   8.8219  11.8902
    12.4694  14.3605

     occupation numbers 
     1.0000   1.0000   1.0000   1.0000   1.0000   1.0000   1.0000   1.0000
     1.0000   1.0000   1.0000   1.0000   1.0000   1.0000   0.0000   0.0000
     0.0000   0.0000

          k = 0.2828 0.0943 0.0000 ( 23795 PWs)   bands (ev):

   -12.3921 -12.3901 -12.3694 -12.2988 -12.2778 -12.1738 -12.1245 -12.1012
   -12.0874 -12.0757  -1.9039   3.5281   7.2469   7.5752   9.6451  10.2339
    12.4850  12.6256

     occupation numbers 
     1.0000   1.0000   1.0000   1.0000   1.0000   1.0000   1.0000   1.0000
     1.0000   1.0000   1.0000   1.0000   1.0000   1.0000   0.0000   0.0000
     0.0000   0.0000

          k = 0.3300 0.1414-0.0471 ( 23807 PWs)   bands (ev):

   -12.3992 -12.3953 -12.3606 -12.2906 -12.2674 -12.1840 -12.1332 -12.1109
   -12.0791 -12.0689  -1.6810   2.9986   6.8604   7.4096   9.6596  10.5090
    12.7994  12.8625

     occupation numbers 
     1.0000   1.0000   1.0000   1.0000   1.0000   1.0000   1.0000   1.0000
     1.0000   1.0000   1.0000   1.0000   1.0000   1.0000   0.0000   0.0000
     0.0000   0.0000

          k = 0.3771 0.1886-0.0943 ( 23780 PWs)   bands (ev):

   -12.4064 -12.3994 -12.3501 -12.2822 -12.2596 -12.1902 -12.1419 -12.1234
   -12.0724 -12.0621  -1.4088   2.4418   6.5366   7.2479   9.5714  10.9707
    12.9003  13.1247

     occupation numbers 
     1.0000   1.0000   1.0000   1.0000   1.0000   1.0000   1.0000   1.0000
     1.0000   1.0000   1.0000   1.0000   1.0000   1.0000   0.0000   0.0000
     0.0000   0.0000

          k = 0.4243 0.2357-0.1414 ( 23801 PWs)   bands (ev):

   -12.4121 -12.4024 -12.3399 -12.2743 -12.2563 -12.1911 -12.1507 -12.1355
   -12.0676 -12.0564  -1.1189   1.9294   6.2894   7.1380   9.4697  11.4138
    12.9403  13.4097

     occupation numbers 
     1.0000   1.0000   1.0000   1.0000   1.0000   1.0000   1.0000   1.0000
     1.0000   1.0000   1.0000   1.0000   1.0000   1.0000   0.0000   0.0000
     0.0000   0.0000

          k =-0.2357-0.4243 0.5185 ( 23805 PWs)   bands (ev):

   -12.4155 -12.4044 -12.3321 -12.2677 -12.2575 -12.1870 -12.1596 -12.1443
   -12.0644 -12.0529  -0.8809   1.5567   6.1255   7.1003   9.3932  11.6995
    12.9402  13.7900

     occupation numbers 
     1.0000   1.0000   1.0000   1.0000   1.0000   1.0000   1.0000   1.0000
     1.0000   1.0000   1.0000   1.0000   1.0000   1.0000   0.0000   0.0000
     0.0000   0.0000

          k =-0.1886-0.3771 0.4714 ( 23798 PWs)   bands (ev):

   -12.4165 -12.4054 -12.3287 -12.2662 -12.2590 -12.1806 -12.1652 -12.1487
   -12.0626 -12.0523  -0.8094   1.4523   6.0506   7.1394   9.3555  11.8316
    12.8748  14.0452

     occupation numbers 
     1.0000   1.0000   1.0000   1.0000   1.0000   1.0000   1.0000   1.0000
     1.0000   1.0000   1.0000   1.0000   1.0000   1.0000   0.0000   0.0000
     0.0000   0.0000

          k =-0.1414-0.3300 0.4243 ( 23805 PWs)   bands (ev):

   -12.4147 -12.4053 -12.3306 -12.2726 -12.2576 -12.1800 -12.1585 -12.1495
   -12.0623 -12.0546  -0.9553   1.6690   6.0720   7.2505   9.3563  11.8428
    12.7665  13.7715

     occupation numbers 
     1.0000   1.0000   1.0000   1.0000   1.0000   1.0000   1.0000   1.0000
     1.0000   1.0000   1.0000   1.0000   1.0000   1.0000   0.0000   0.0000
     0.0000   0.0000

          k =-0.0943-0.2828 0.3771 ( 23796 PWs)   bands (ev):

   -12.4104 -12.4039 -12.3374 -12.2802 -12.2598 -12.1800 -12.1472 -12.1443
   -12.0641 -12.0594  -1.2234   2.1035   6.1999   7.4205   9.3811  11.6771
    12.6688  13.2612

     occupation numbers 
     1.0000   1.0000   1.0000   1.0000   1.0000   1.0000   1.0000   1.0000
     1.0000   1.0000   1.0000   1.0000   1.0000   1.0000   0.0000   0.0000
     0.0000   0.0000

          k =-0.0471-0.2357 0.3300 ( 23776 PWs)   bands (ev):

   -12.4040 -12.4012 -12.3472 -12.2877 -12.2667 -12.1757 -12.1425 -12.1290
   -12.0703 -12.0640  -1.5120   2.6336   6.4459   7.6250   9.3944  11.3280
    12.5392  12.8871

     occupation numbers 
     1.0000   1.0000   1.0000   1.0000   1.0000   1.0000   1.0000   1.0000
     1.0000   1.0000   1.0000   1.0000   1.0000   1.0000   0.0000   0.0000
     0.0000   0.0000

          k = 0.0000-0.1886 0.2828 ( 23813 PWs)   bands (ev):

   -12.3974 -12.3960 -12.3575 -12.2950 -12.2768 -12.1675 -12.1360 -12.1153
   -12.0799 -12.0684  -1.7685   3.1756   6.8189   7.8198   9.3323  10.9841
    12.2328  12.7325

     occupation numbers 
     1.0000   1.0000   1.0000   1.0000   1.0000   1.0000   1.0000   1.0000
     1.0000   1.0000   1.0000   1.0000   1.0000   1.0000   0.0000   0.0000
     0.0000   0.0000

          k = 0.3771 0.0943 0.0000 ( 23795 PWs)   bands (ev):

   -12.3985 -12.3978 -12.3637 -12.2840 -12.2534 -12.2031 -12.1374 -12.1027
   -12.0764 -12.0715  -1.5636   2.7869   6.8367   7.1008   9.9321   9.9995
    13.1523  13.3497

     occupation numbers 
     1.0000   1.0000   1.0000   1.0000   1.0000   1.0000   1.0000   1.0000
     1.0000   1.0000   1.0000   1.0000   1.0000   1.0000   0.0000   0.0000
     0.0000   0.0000

          k = 0.4243 0.1414-0.0471 ( 23782 PWs)   bands (ev):

   -12.4063 -12.4018 -12.3518 -12.2749 -12.2436 -12.2127 -12.1471 -12.1162
   -12.0697 -12.0630  -1.3043   2.3031   6.4867   6.9532   9.9051  10.3633
    13.1209  13.6455

     occupation numbers 
     1.0000   1.0000   1.0000   1.0000   1.0000   1.0000   1.0000   1.0000
     1.0000   1.0000   1.0000   1.0000   1.0000   1.0000   0.0000   0.0000
     0.0000   0.0000

          k = 0.4714 0.1886-0.0943 ( 23788 PWs)   bands (ev):

   -12.4137 -12.4048 -12.3383 -12.2658 -12.2387 -12.2164 -12.1574 -12.1311
   -12.0649 -12.0546  -1.0123   1.8249   6.1682   6.8519   9.8198  10.9365
    13.0632  13.7666

     occupation numbers 
     1.0000   1.0000   1.0000   1.0000   1.0000   1.0000   1.0000   1.0000
     1.0000   1.0000   1.0000   1.0000   1.0000   1.0000   0.0000   0.0000
     0.0000   0.0000

          k =-0.1886-0.4714 0.5657 ( 23824 PWs)   bands (ev):

   -12.4192 -12.4071 -12.3264 -12.2576 -12.2398 -12.2135 -12.1677 -12.1436
   -12.0614 -12.0486  -0.7410   1.4303   5.9177   6.8272   9.7525  11.5076
    13.1256  13.7281

     occupation numbers 
     1.0000   1.0000   1.0000   1.0000   1.0000   1.0000   1.0000   1.0000
     1.0000   1.0000   1.0000   1.0000   1.0000   1.0000   0.0000   0.0000
     0.0000   0.0000

          k =-0.1414-0.4243 0.5185 ( 23808 PWs)   bands (ev):

   -12.4219 -12.4084 -12.3191 -12.2530 -12.2437 -12.2060 -12.1764 -12.1511
   -12.0591 -12.0458  -0.6027   1.2450   5.7623   6.8833   9.7157  11.8915
    13.3196  13.5953

     occupation numbers 
     1.0000   1.0000   1.0000   1.0000   1.0000   1.0000   1.0000   1.0000
     1.0000   1.0000   1.0000   1.0000   1.0000   1.0000   0.0000   0.0000
     0.0000   0.0000

          k =-0.0943-0.3771 0.4714 ( 23819 PWs)   bands (ev):

   -12.4214 -12.4087 -12.3180 -12.2598 -12.2440 -12.1971 -12.1775 -12.1534
   -12.0581 -12.0468  -0.6981   1.3722   5.7218   7.0132   9.7023  12.0465
    13.1672  13.5531

     occupation numbers 
     1.0000   1.0000   1.0000   1.0000   1.0000   1.0000   1.0000   1.0000
     1.0000   1.0000   1.0000   1.0000   1.0000   1.0000   0.0000   0.0000
     0.0000   0.0000

          k =-0.0471-0.3300 0.4243 ( 23808 PWs)   bands (ev):

   -12.4178 -12.4077 -12.3234 -12.2708 -12.2469 -12.1921 -12.1649 -12.1518
   -12.0585 -12.0516  -0.9526   1.7294   5.8133   7.2019   9.6845  11.9715
    12.8736  13.3009

     occupation numbers 
     1.0000   1.0000   1.0000   1.0000   1.0000   1.0000   1.0000   1.0000
     1.0000   1.0000   1.0000   1.0000   1.0000   1.0000   0.0000   0.0000
     0.0000   0.0000

          k = 0.0000-0.2828 0.3771 ( 23778 PWs)   bands (ev):

   -12.4115 -12.4054 -12.3342 -12.2804 -12.2552 -12.1854 -12.1494 -12.1450
   -12.0605 -12.0598  -1.2446   2.1781   6.0520   7.4222   9.6045  11.6387
    12.8124  12.9271

     occupation numbers 
     1.0000   1.0000   1.0000   1.0000   1.0000   1.0000   1.0000   1.0000
     1.0000   1.0000   1.0000   1.0000   1.0000   1.0000   0.0000   0.0000
     0.0000   0.0000

          k = 0.4714 0.0943-0.0000 ( 23801 PWs)   bands (ev):

   -12.4047 -12.4046 -12.3529 -12.2656 -12.2334 -12.2268 -12.1552 -12.1116
   -12.0664 -12.0650  -1.1344   2.0379   6.5229   6.7148   9.7329  10.0745
    13.6669  14.1777

     occupation numbers 
     1.0000   1.0000   1.0000   1.0000   1.0000   1.0000   1.0000   1.0000
     1.0000   1.0000   1.0000   1.0000   1.0000   1.0000   0.0000   0.0000
     0.0000   0.0000

          k = 0.5185 0.1414-0.0471 ( 23803 PWs)   bands (ev):

   -12.4123 -12.4074 -12.3383 -12.2556 -12.2422 -12.2178 -12.1660 -12.1276
   -12.0617 -12.0562  -0.8461   1.6078   6.2139   6.6040   9.8496  10.3566
    13.5246  14.3811

     occupation numbers 
     1.0000   1.0000   1.0000   1.0000   1.0000   1.0000   1.0000   1.0000
     1.0000   1.0000   1.0000   1.0000   1.0000   1.0000   0.0000   0.0000
     0.0000   0.0000

          k =-0.1414-0.5185 0.6128 ( 23802 PWs)   bands (ev):

   -12.4192 -12.4094 -12.3232 -12.2464 -12.2440 -12.2147 -12.1772 -12.1433
   -12.0586 -12.0482  -0.5526   1.2179   5.9050   6.5783   9.8306  10.9960
    13.3833  14.3114

     occupation numbers 
     1.0000   1.0000   1.0000   1.0000   1.0000   1.0000   1.0000   1.0000
     1.0000   1.0000   1.0000   1.0000   1.0000   1.0000   0.0000   0.0000
     0.0000   0.0000

          k =-0.0943-0.4714 0.5657 ( 23829 PWs)   bands (ev):

   -12.4238 -12.4106 -12.3126 -12.2408 -12.2354 -12.2199 -12.1875 -12.1535
   -12.0565 -12.0432  -0.3561   0.9797   5.6717   6.6377   9.8219  11.7104
    13.3101  13.9986

     occupation numbers 
     1.0000   1.0000   1.0000   1.0000   1.0000   1.0000   1.0000   1.0000
     1.0000   1.0000   1.0000   1.0000   1.0000   1.0000   0.0000   0.0000
     0.0000   0.0000

          k =-0.0471-0.4243 0.5185 ( 23834 PWs)   bands (ev):

   -12.4252 -12.4109 -12.3096 -12.2417 -12.2293 -12.2207 -12.1923 -12.1566
   -12.0557 -12.0420  -0.4103   1.0457   5.5606   6.7735   9.8287  12.2646
    13.2559  13.5885

     occupation numbers 
     1.0000   1.0000   1.0000   1.0000   1.0000   1.0000   1.0000   1.0000
     1.0000   1.0000   1.0000   1.0000   1.0000   1.0000   0.0000   0.0000
     0.0000   0.0000

          k =-0.0000-0.3771 0.4714 ( 23825 PWs)   bands (ev):

   -12.4231 -12.4099 -12.3135 -12.2568 -12.2355 -12.2051 -12.1841 -12.1553
   -12.0563 -12.0450  -0.6592   1.3505   5.6014   6.9704   9.8101  12.3484
    12.9504  13.4884

     occupation numbers 
     1.0000   1.0000   1.0000   1.0000   1.0000   1.0000   1.0000   1.0000
     1.0000   1.0000   1.0000   1.0000   1.0000   1.0000   0.0000   0.0000
     0.0000   0.0000

          k = 0.5657 0.0943 0.0000 ( 23812 PWs)   bands (ev):

   -12.4097 -12.4095 -12.3368 -12.2632 -12.2444 -12.1995 -12.1760 -12.1275
   -12.0589 -12.0587  -0.6231   1.3059   6.3204   6.4364   9.6459   9.9527
    14.2803  14.8559

     occupation numbers 
     1.0000   1.0000   1.0000   1.0000   1.0000   1.0000   1.0000   1.0000
     1.0000   1.0000   1.0000   1.0000   1.0000   1.0000   0.0000   0.0000
     0.0000   0.0000

          k =-0.0943-0.5657 0.6600 ( 23822 PWs)   bands (ev):

   -12.4162 -12.4112 -12.3204 -12.2698 -12.2338 -12.1928 -12.1876 -12.1445
   -12.0564 -12.0511  -0.3169   0.9331   6.0495   6.3848   9.7733  10.3068
    14.1007  14.8257

     occupation numbers 
     1.0000   1.0000   1.0000   1.0000   1.0000   1.0000   1.0000   1.0000
     1.0000   1.0000   1.0000   1.0000   1.0000   1.0000   0.0000   0.0000
     0.0000   0.0000

          k =-0.0471-0.5185 0.6128 ( 23833 PWs)   bands (ev):

   -12.4221 -12.4120 -12.3078 -12.2653 -12.2245 -12.1992 -12.1962 -12.1568
   -12.0549 -12.0447  -0.0747   0.6665   5.7674   6.4398   9.7939  11.0156
    13.8844  14.4245

     occupation numbers 
     1.0000   1.0000   1.0000   1.0000   1.0000   1.0000   1.0000   1.0000
     1.0000   1.0000   1.0000   1.0000   1.0000   1.0000   0.0000   0.0000
     0.0000   0.0000

          k = 0.0000-0.4714 0.5657 ( 23840 PWs)   bands (ev):

   -12.4254 -12.4119 -12.3056 -12.2463 -12.2249 -12.2126 -12.2019 -12.1588
   -12.0547 -12.0414  -0.1384   0.7415   5.5857   6.5743   9.8252  11.7931
    13.5658  13.9167

     occupation numbers 
     1.0000   1.0000   1.0000   1.0000   1.0000   1.0000   1.0000   1.0000
     1.0000   1.0000   1.0000   1.0000   1.0000   1.0000   0.0000   0.0000
     0.0000   0.0000

          k =-0.0471-0.6128 0.7071 ( 23828 PWs)   bands (ev):

   -12.4124 -12.4122 -12.3160 -12.2911 -12.2217 -12.1985 -12.1730 -12.1485
   -12.0550 -12.0549  -0.0384   0.6088   6.2369   6.2756   9.6689   9.7856
    14.8776  15.1524

     occupation numbers 
     1.0000   1.0000   1.0000   1.0000   1.0000   1.0000   1.0000   1.0000
     1.0000   1.0000   1.0000   1.0000   1.0000   1.0000   0.0000   0.0000
     0.0000   0.0000

          k = 0.0000-0.5657 0.6600 ( 23828 PWs)   bands (ev):

   -12.4176 -12.4126 -12.3041 -12.2895 -12.2128 -12.2085 -12.1743 -12.1601
   -12.0544 -12.0493   0.1960   0.3712   5.9950   6.3099   9.7471  10.2749
    14.5662  14.7710

     occupation numbers 
     1.0000   1.0000   1.0000   1.0000   1.0000   1.0000   1.0000   1.0000
     1.0000   1.0000   1.0000   1.0000   1.0000   1.0000   0.0000   0.0000
     0.0000   0.0000

          k = 0.3771 0.1886-0.0000 ( 23788 PWs)   bands (ev):

   -12.4039 -12.4028 -12.3495 -12.2827 -12.2563 -12.1946 -12.1413 -12.1233
   -12.0691 -12.0643  -1.4419   2.5331   6.4409   7.2739   9.8470  10.6816
    12.8542  13.1720

     occupation numbers 
     1.0000   1.0000   1.0000   1.0000   1.0000   1.0000   1.0000   1.0000
     1.0000   1.0000   1.0000   1.0000   1.0000   1.0000   0.0000   0.0000
     0.0000   0.0000

          k = 0.4243 0.2357-0.0471 ( 23791 PWs)   bands (ev):

   -12.4115 -12.4060 -12.3366 -12.2744 -12.2476 -12.2017 -12.1502 -12.1381
   -12.0623 -12.0579  -1.1594   2.0477   6.1246   7.0976   9.8965  11.0908
    12.8170  13.4808

     occupation numbers 
     1.0000   1.0000   1.0000   1.0000   1.0000   1.0000   1.0000   1.0000
     1.0000   1.0000   1.0000   1.0000   1.0000   1.0000   0.0000   0.0000
     0.0000   0.0000

          k =-0.2357-0.4243 0.6128 ( 23820 PWs)   bands (ev):

   -12.4174 -12.4081 -12.3254 -12.2660 -12.2437 -12.2035 -12.1616 -12.1488
   -12.0596 -12.0511  -0.8718   1.6080   5.9183   6.9482   9.8755  11.5119
    12.9264  13.6482

     occupation numbers 
     1.0000   1.0000   1.0000   1.0000   1.0000   1.0000   1.0000   1.0000
     1.0000   1.0000   1.0000   1.0000   1.0000   1.0000   0.0000   0.0000
     0.0000   0.0000

          k =-0.1886-0.3771 0.5657 ( 23824 PWs)   bands (ev):

   -12.4205 -12.4091 -12.3188 -12.2591 -12.2443 -12.2016 -12.1720 -12.1533
   -12.0584 -12.0475  -0.6653   1.3202   5.8176   6.8650   9.8533  11.7190
    13.2217  13.6423

     occupation numbers 
     1.0000   1.0000   1.0000   1.0000   1.0000   1.0000   1.0000   1.0000
     1.0000   1.0000   1.0000   1.0000   1.0000   1.0000   0.0000   0.0000
     0.0000   0.0000

          k = 0.4714 0.1886-0.0000 ( 23804 PWs)   bands (ev):

   -12.4107 -12.4084 -12.3380 -12.2658 -12.2329 -12.2231 -12.1571 -12.1310
   -12.0596 -12.0592  -1.0329   1.8752   6.1720   6.7860  10.2048  10.4609
    12.9883  14.0355

     occupation numbers 
     1.0000   1.0000   1.0000   1.0000   1.0000   1.0000   1.0000   1.0000
     1.0000   1.0000   1.0000   1.0000   1.0000   1.0000   0.0000   0.0000
     0.0000   0.0000

          k =-0.1886-0.4714 0.6600 ( 23819 PWs)   bands (ev):

   -12.4174 -12.4111 -12.3230 -12.2566 -12.2305 -12.2241 -12.1686 -12.1462
   -12.0565 -12.0508  -0.7364   1.4571   5.9178   6.6348  10.2316  10.9932
    12.8849  14.1601

     occupation numbers 
     1.0000   1.0000   1.0000   1.0000   1.0000   1.0000   1.0000   1.0000
     1.0000   1.0000   1.0000   1.0000   1.0000   1.0000   0.0000   0.0000
     0.0000   0.0000

          k =-0.1414-0.4243 0.6128 ( 23820 PWs)   bands (ev):

   -12.4221 -12.4125 -12.3112 -12.2488 -12.2310 -12.2218 -12.1803 -12.1565
   -12.0547 -12.0452  -0.4813   1.1301   5.7395   6.5627  10.2168  11.5515
    12.9511  13.9212

     occupation numbers 
     1.0000   1.0000   1.0000   1.0000   1.0000   1.0000   1.0000   1.0000
     1.0000   1.0000   1.0000   1.0000   1.0000   1.0000   0.0000   0.0000
     0.0000   0.0000

          k =-0.0943-0.3771 0.5657 ( 23828 PWs)   bands (ev):

   -12.4239 -12.4129 -12.3068 -12.2471 -12.2284 -12.2215 -12.1861 -12.1600
   -12.0540 -12.0434  -0.4098   1.0436   5.6538   6.5898  10.2126  11.8312
    13.2056  13.5103

     occupation numbers 
     1.0000   1.0000   1.0000   1.0000   1.0000   1.0000   1.0000   1.0000
     1.0000   1.0000   1.0000   1.0000   1.0000   1.0000   0.0000   0.0000
     0.0000   0.0000

          k =-0.0471-0.3300 0.5185 ( 23835 PWs)   bands (ev):

   -12.4222 -12.4122 -12.3110 -12.2546 -12.2303 -12.2172 -12.1791 -12.1577
   -12.0545 -12.0456  -0.5858   1.2608   5.6799   6.7085  10.2016  11.7594
    12.8614  13.7761

     occupation numbers 
     1.0000   1.0000   1.0000   1.0000   1.0000   1.0000   1.0000   1.0000
     1.0000   1.0000   1.0000   1.0000   1.0000   1.0000   0.0000   0.0000
     0.0000   0.0000

          k = 0.0000-0.2828 0.4714 ( 23792 PWs)   bands (ev):

   -12.4176 -12.4101 -12.3222 -12.2653 -12.2367 -12.2112 -12.1630 -12.1512
   -12.0564 -12.0516  -0.8710   1.6353   5.8343   6.8933  10.1254  11.4026
    12.7310  13.7921

     occupation numbers 
     1.0000   1.0000   1.0000   1.0000   1.0000   1.0000   1.0000   1.0000
     1.0000   1.0000   1.0000   1.0000   1.0000   1.0000   0.0000   0.0000
     0.0000   0.0000

          k =-0.1414-0.5185 0.7071 ( 23808 PWs)   bands (ev):

   -12.4153 -12.4133 -12.3221 -12.2513 -12.2454 -12.2084 -12.1775 -12.1441
   -12.0539 -12.0528  -0.5500   1.2226   6.0277   6.4013  10.3289  10.3332
    13.3685  14.5864

     occupation numbers 
     1.0000   1.0000   1.0000   1.0000   1.0000   1.0000   1.0000   1.0000
     1.0000   1.0000   1.0000   1.0000   1.0000   1.0000   0.0000   0.0000
     0.0000   0.0000

          k =-0.0943-0.4714 0.6600 ( 23804 PWs)   bands (ev):

   -12.4208 -12.4151 -12.3058 -12.2548 -12.2357 -12.2042 -12.1898 -12.1594
   -12.0519 -12.0462  -0.2591   0.8802   5.8274   6.3024  10.3252  11.0094
    13.2229  14.2530

     occupation numbers 
     1.0000   1.0000   1.0000   1.0000   1.0000   1.0000   1.0000   1.0000
     1.0000   1.0000   1.0000   1.0000   1.0000   1.0000   0.0000   0.0000
     0.0000   0.0000

          k =-0.0471-0.4243 0.6128 ( 23832 PWs)   bands (ev):

   -12.4244 -12.4154 -12.2978 -12.2482 -12.2298 -12.2101 -12.1984 -12.1659
   -12.0513 -12.0423  -0.1238   0.7324   5.6589   6.3447  10.3372  11.6966
    13.1510  13.6404

     occupation numbers 
     1.0000   1.0000   1.0000   1.0000   1.0000   1.0000   1.0000   1.0000
     1.0000   1.0000   1.0000   1.0000   1.0000   1.0000   0.0000   0.0000
     0.0000   0.0000

          k = 0.0000-0.3771 0.5657 ( 23829 PWs)   bands (ev):

   -12.4249 -12.4145 -12.3008 -12.2398 -12.2329 -12.2178 -12.1953 -12.1636
   -12.0520 -12.0422  -0.2960   0.9257   5.5968   6.4918  10.3275  12.0155
    12.9492  13.5158

     occupation numbers 
     1.0000   1.0000   1.0000   1.0000   1.0000   1.0000   1.0000   1.0000
     1.0000   1.0000   1.0000   1.0000   1.0000   1.0000   0.0000   0.0000
     0.0000   0.0000

          k =-0.0471-0.5185 0.7071 ( 23814 PWs)   bands (ev):

   -12.4173 -12.4165 -12.3019 -12.2779 -12.2231 -12.2000 -12.1843 -12.1624
   -12.0503 -12.0497  -0.0044   0.5912   6.0163   6.1415  10.2939  10.3157
    13.9467  14.4908

     occupation numbers 
     1.0000   1.0000   1.0000   1.0000   1.0000   1.0000   1.0000   1.0000
     1.0000   1.0000   1.0000   1.0000   1.0000   1.0000   0.0000   0.0000
     0.0000   0.0000

          k = 0.0000-0.4714 0.6600 ( 23827 PWs)   bands (ev):

   -12.4219 -12.4167 -12.2920 -12.2715 -12.2170 -12.2090 -12.1897 -12.1708
   -12.0500 -12.0447   0.1472   0.4410   5.8152   6.1704  10.3307  11.0228
    13.7190  13.8339

     occupation numbers 
     1.0000   1.0000   1.0000   1.0000   1.0000   1.0000   1.0000   1.0000
     1.0000   1.0000   1.0000   1.0000   1.0000   1.0000   0.0000   0.0000
     0.0000   0.0000

          k =-0.1414-0.4243 0.7071 ( 23797 PWs)   bands (ev):

   -12.4211 -12.4153 -12.3066 -12.2464 -12.2379 -12.2158 -12.1829 -12.1602
   -12.0514 -12.0464  -0.4372   1.0915   5.7565   6.4149  10.6023  11.2255
    12.7749  14.0632

     occupation numbers 
     1.0000   1.0000   1.0000   1.0000   1.0000   1.0000   1.0000   1.0000
     1.0000   1.0000   1.0000   1.0000   1.0000   1.0000   0.0000   0.0000
     0.0000   0.0000

          k =-0.0943-0.3771 0.6600 ( 23820 PWs)   bands (ev):

   -12.4238 -12.4169 -12.2951 -12.2445 -12.2352 -12.2115 -12.1951 -12.1686
   -12.0496 -12.0431  -0.1894   0.8089   5.6839   6.2790  10.7072  11.6131
    12.8626  13.5363

     occupation numbers 
     1.0000   1.0000   1.0000   1.0000   1.0000   1.0000   1.0000   1.0000
     1.0000   1.0000   1.0000   1.0000   1.0000   1.0000   0.0000   0.0000
     0.0000   0.0000

          k =-0.0471-0.4243 0.7071 ( 23843 PWs)   bands (ev):

   -12.4217 -12.4195 -12.2869 -12.2636 -12.2255 -12.2041 -12.1947 -12.1754
   -12.0470 -12.0450   0.0436   0.5574   5.8280   6.0505  10.9151  11.0860
    13.0953  13.6346

     occupation numbers 
     1.0000   1.0000   1.0000   1.0000   1.0000   1.0000   1.0000   1.0000
     1.0000   1.0000   1.0000   1.0000   1.0000   1.0000   0.0000   0.0000
     0.0000   0.0000

          k =-0.0000-0.3771 0.6600 ( 23842 PWs)   bands (ev):

   -12.4235 -12.4196 -12.2825 -12.2593 -12.2239 -12.2090 -12.1974 -12.1782
   -12.0469 -12.0431   0.0962   0.5059   5.7526   6.0613  10.9483  11.5498
    12.9926  13.1810

     occupation numbers 
     1.0000   1.0000   1.0000   1.0000   1.0000   1.0000   1.0000   1.0000
     1.0000   1.0000   1.0000   1.0000   1.0000   1.0000   0.0000   0.0000
     0.0000   0.0000

     the Fermi energy is     8.3253 ev

!    total energy              =    -233.44830458 Ry
     Harris-Foulkes estimate   =    -233.44830472 Ry
     estimated scf accuracy    <       0.00000041 Ry

     The total energy is the sum of the following terms:

     one-electron contribution =     -95.31556255 Ry
     hartree contribution      =      58.35548940 Ry
     xc contribution           =     -28.70688953 Ry
     ewald contribution        =    -167.78134157 Ry
     smearing contrib. (-TS)   =      -0.00000032 Ry

     convergence has been achieved in   5 iterations

     Writing output data file Sn.save
 
     init_run     :      8.63s CPU      9.24s WALL (       1 calls)
     electrons    :    163.87s CPU    173.44s WALL (       1 calls)

     Called by init_run:
     wfcinit      :      8.02s CPU      8.52s WALL (       1 calls)
     potinit      :      0.08s CPU      0.12s WALL (       1 calls)

     Called by electrons:
     c_bands      :    143.68s CPU    151.77s WALL (       5 calls)
     sum_band     :     19.81s CPU     21.04s WALL (       5 calls)
     v_of_rho     :      0.35s CPU      0.54s WALL (       6 calls)
     v_h          :      0.03s CPU      0.08s WALL (       6 calls)
     v_xc         :      0.32s CPU      0.46s WALL (       6 calls)
     mix_rho      :      0.03s CPU      0.06s WALL (       5 calls)

     Called by c_bands:
     init_us_2    :      1.44s CPU      1.68s WALL (    1320 calls)
     cegterg      :    138.22s CPU    146.02s WALL (     600 calls)

     Called by sum_band:

     Called by *egterg:
     h_psi        :    128.24s CPU    134.95s WALL (    2584 calls)
     g_psi        :      0.56s CPU      0.56s WALL (    1864 calls)
     cdiaghg      :      2.57s CPU      2.59s WALL (    2464 calls)
     cegterg:over :      5.96s CPU      5.98s WALL (    1864 calls)
     cegterg:upda :      3.05s CPU      3.07s WALL (    1864 calls)
     cegterg:last :      2.03s CPU      2.03s WALL (     826 calls)

     Called by h_psi:
     h_psi:vloc   :    120.96s CPU    127.52s WALL (    2584 calls)
     h_psi:vnl    :      6.64s CPU      6.78s WALL (    2584 calls)
     add_vuspsi   :      2.51s CPU      2.53s WALL (    2584 calls)

     General routines
     calbec       :      4.12s CPU      4.24s WALL (    2584 calls)
     fft          :      0.26s CPU      0.46s WALL (      65 calls)
     fftw         :    122.28s CPU    129.12s WALL (   86138 calls)
     davcio       :      0.05s CPU      0.50s WALL (     120 calls)
 
     Parallel routines
     fft_scatter  :     47.17s CPU     51.09s WALL (   86203 calls)
 
     PWSCF        :  2m52.99s CPU     3m 3.83s WALL

 
   This run was terminated on:   0:19:46  28Feb2020            

=------------------------------------------------------------------------------=
   JOB DONE.
=------------------------------------------------------------------------------=
