
     Program PWSCF v.5.4.0 starts on  2Mar2020 at 12:19:12 

     This program is part of the open-source Quantum ESPRESSO suite
     for quantum simulation of materials; please cite
         "P. Giannozzi et al., J. Phys.:Condens. Matter 21 395502 (2009);
          URL http://www.quantum-espresso.org", 
     in publications or presentations arising from this work. More details at
     http://www.quantum-espresso.org/quote

     Parallel version (MPI & OpenMP), running on      16 processor cores
     Number of MPI processes:                16
     Threads/MPI process:                     1
     R & G space division:  proc/nbgrp/npool/nimage =      16
     Waiting for input...
     Reading input from standard input
Warning: card &IONS ignored
Warning: card / ignored
Warning: card &CELL ignored
Warning: card / ignored

     Current dimensions of program PWSCF are:
     Max number of different atomic species (ntypx) = 10
     Max number of k-points (npk) =  40000
     Max angular momentum in pseudopotentials (lmaxx) =  3

     Subspace diagonalization in iterative solution of the eigenvalue problem:
     a serial algorithm will be used

 
     Parallelization info
     --------------------
     sticks:   dense  smooth     PW     G-vecs:    dense   smooth      PW
     Min         108     108     31                 2965     2965     461
     Max         109     109     32                 2966     2966     465
     Sum        1735    1735    499                47447    47447    7391
 

     Title: 
     Sn                                                                         


     bravais-lattice index     =            0
     lattice parameter (alat)  =       8.8459  a.u.
     unit-cell volume          =     489.4525 (a.u.)^3
     number of atoms/cell      =            2
     number of atomic types    =            1
     number of electrons       =        28.00
     number of Kohn-Sham states=           18
     kinetic-energy cutoff     =      80.0000  Ry
     charge density cutoff     =     320.0000  Ry
     convergence threshold     =      1.0E-06
     mixing beta               =       0.7000
     number of iterations used =            8  plain     mixing
     Exchange-correlation      = PBE ( 1  4  3  4 0 0)

     celldm(1)=   8.845897  celldm(2)=   0.000000  celldm(3)=   0.000000
     celldm(4)=   0.000000  celldm(5)=   0.000000  celldm(6)=   0.000000

     crystal axes: (cart. coord. in units of alat)
               a(1) = (   0.000000   0.707107   0.707107 )  
               a(2) = (   0.707107   0.000000   0.707107 )  
               a(3) = (   0.707107   0.707107   0.000000 )  

     reciprocal axes: (cart. coord. in units 2 pi/alat)
               b(1) = ( -0.707107  0.707107  0.707107 )  
               b(2) = (  0.707107 -0.707107  0.707107 )  
               b(3) = (  0.707107  0.707107 -0.707107 )  


     PseudoPot. # 1 for Sn read from file:
     ../PseudopotentialDatabase/Sn_ONCV_PBE-1.0.upf
     MD5 check sum: 4ecdb67ea6112684f1b2ae1cab9d4ca6
     Pseudo is Norm-conserving, Zval = 14.0
     Generated using ONCVPSP code by D. R. Hamann
     Using radial grid of  602 points,  6 beta functions with: 
                l(1) =   0
                l(2) =   0
                l(3) =   1
                l(4) =   1
                l(5) =   2
                l(6) =   2

     atomic species   valence    mass     pseudopotential
        Sn            14.00   118.71000     Sn( 1.00)

     24 Sym. Ops. (no inversion) found
          (note: 24 additional sym.ops. were found but ignored
           their fractional translations are incommensurate with FFT grid)

                                    s                        frac. trans.

      isym =  1     identity                                     

 cryst.   s( 1) = (     1          0          0      )
                  (     0          1          0      )
                  (     0          0          1      )

 cart.    s( 1) = (  1.0000000  0.0000000  0.0000000 )
                  (  0.0000000  1.0000000  0.0000000 )
                  (  0.0000000  0.0000000  1.0000000 )


      isym =  2     180 deg rotation - cart. axis [0,0,1]        

 cryst.   s( 2) = (     0          1         -1      )
                  (     1          0         -1      )
                  (     0          0         -1      )

 cart.    s( 2) = ( -1.0000000  0.0000000  0.0000000 )
                  (  0.0000000 -1.0000000  0.0000000 )
                  (  0.0000000  0.0000000  1.0000000 )


      isym =  3     180 deg rotation - cart. axis [0,1,0]        

 cryst.   s( 3) = (     0         -1          1      )
                  (     0         -1          0      )
                  (     1         -1          0      )

 cart.    s( 3) = ( -1.0000000  0.0000000  0.0000000 )
                  (  0.0000000  1.0000000  0.0000000 )
                  (  0.0000000  0.0000000 -1.0000000 )


      isym =  4     180 deg rotation - cart. axis [1,0,0]        

 cryst.   s( 4) = (    -1          0          0      )
                  (    -1          0          1      )
                  (    -1          1          0      )

 cart.    s( 4) = (  1.0000000  0.0000000  0.0000000 )
                  (  0.0000000 -1.0000000  0.0000000 )
                  (  0.0000000  0.0000000 -1.0000000 )


      isym =  5     120 deg rotation - cart. axis [-1,-1,-1]     

 cryst.   s( 5) = (     0          0          1      )
                  (     1          0          0      )
                  (     0          1          0      )

 cart.    s( 5) = (  0.0000000  1.0000000  0.0000000 )
                  (  0.0000000  0.0000000  1.0000000 )
                  (  1.0000000  0.0000000  0.0000000 )


      isym =  6     120 deg rotation - cart. axis [-1,1,1]       

 cryst.   s( 6) = (     1         -1          0      )
                  (     0         -1          1      )
                  (     0         -1          0      )

 cart.    s( 6) = (  0.0000000 -1.0000000  0.0000000 )
                  (  0.0000000  0.0000000  1.0000000 )
                  ( -1.0000000  0.0000000  0.0000000 )


      isym =  7     120 deg rotation - cart. axis [1,1,-1]       

 cryst.   s( 7) = (    -1          1          0      )
                  (    -1          0          0      )
                  (    -1          0          1      )

 cart.    s( 7) = (  0.0000000  1.0000000  0.0000000 )
                  (  0.0000000  0.0000000 -1.0000000 )
                  ( -1.0000000  0.0000000  0.0000000 )


      isym =  8     120 deg rotation - cart. axis [1,-1,1]       

 cryst.   s( 8) = (     0          0         -1      )
                  (     0          1         -1      )
                  (     1          0         -1      )

 cart.    s( 8) = (  0.0000000 -1.0000000  0.0000000 )
                  (  0.0000000  0.0000000 -1.0000000 )
                  (  1.0000000  0.0000000  0.0000000 )


      isym =  9     120 deg rotation - cart. axis [1,1,1]        

 cryst.   s( 9) = (     0          1          0      )
                  (     0          0          1      )
                  (     1          0          0      )

 cart.    s( 9) = (  0.0000000  0.0000000  1.0000000 )
                  (  1.0000000  0.0000000  0.0000000 )
                  (  0.0000000  1.0000000  0.0000000 )


      isym = 10     120 deg rotation - cart. axis [-1,1,-1]      

 cryst.   s(10) = (    -1          0          1      )
                  (    -1          1          0      )
                  (    -1          0          0      )

 cart.    s(10) = (  0.0000000  0.0000000  1.0000000 )
                  ( -1.0000000  0.0000000  0.0000000 )
                  (  0.0000000 -1.0000000  0.0000000 )


      isym = 11     120 deg rotation - cart. axis [1,-1,-1]      

 cryst.   s(11) = (     1          0         -1      )
                  (     0          0         -1      )
                  (     0          1         -1      )

 cart.    s(11) = (  0.0000000  0.0000000 -1.0000000 )
                  ( -1.0000000  0.0000000  0.0000000 )
                  (  0.0000000  1.0000000  0.0000000 )


      isym = 12     120 deg rotation - cart. axis [-1,-1,1]      

 cryst.   s(12) = (     0         -1          0      )
                  (     1         -1          0      )
                  (     0         -1          1      )

 cart.    s(12) = (  0.0000000  0.0000000 -1.0000000 )
                  (  1.0000000  0.0000000  0.0000000 )
                  (  0.0000000 -1.0000000  0.0000000 )


      isym = 13     inv. 180 deg rotation - cart. axis [1,1,0]   

 cryst.   s(13) = (     1          0         -1      )
                  (     0          1         -1      )
                  (     0          0         -1      )

 cart.    s(13) = (  0.0000000 -1.0000000  0.0000000 )
                  ( -1.0000000  0.0000000  0.0000000 )
                  (  0.0000000  0.0000000  1.0000000 )


      isym = 14     inv. 180 deg rotation - cart. axis [1,-1,0]  

 cryst.   s(14) = (     0          1          0      )
                  (     1          0          0      )
                  (     0          0          1      )

 cart.    s(14) = (  0.0000000  1.0000000  0.0000000 )
                  (  1.0000000  0.0000000  0.0000000 )
                  (  0.0000000  0.0000000  1.0000000 )


      isym = 15     inv.  90 deg rotation - cart. axis [0,0,-1]  

 cryst.   s(15) = (     0         -1          0      )
                  (     0         -1          1      )
                  (     1         -1          0      )

 cart.    s(15) = (  0.0000000 -1.0000000  0.0000000 )
                  (  1.0000000  0.0000000  0.0000000 )
                  (  0.0000000  0.0000000 -1.0000000 )


      isym = 16     inv.  90 deg rotation - cart. axis [0,0,1]   

 cryst.   s(16) = (    -1          0          1      )
                  (    -1          0          0      )
                  (    -1          1          0      )

 cart.    s(16) = (  0.0000000  1.0000000  0.0000000 )
                  ( -1.0000000  0.0000000  0.0000000 )
                  (  0.0000000  0.0000000 -1.0000000 )


      isym = 17     inv. 180 deg rotation - cart. axis [1,0,1]   

 cryst.   s(17) = (     1         -1          0      )
                  (     0         -1          0      )
                  (     0         -1          1      )

 cart.    s(17) = (  0.0000000  0.0000000 -1.0000000 )
                  (  0.0000000  1.0000000  0.0000000 )
                  ( -1.0000000  0.0000000  0.0000000 )


      isym = 18     inv. 180 deg rotation - cart. axis [-1,0,1]  

 cryst.   s(18) = (     0          0          1      )
                  (     0          1          0      )
                  (     1          0          0      )

 cart.    s(18) = (  0.0000000  0.0000000  1.0000000 )
                  (  0.0000000  1.0000000  0.0000000 )
                  (  1.0000000  0.0000000  0.0000000 )


      isym = 19     inv.  90 deg rotation - cart. axis [0,1,0]   

 cryst.   s(19) = (     0          0         -1      )
                  (     1          0         -1      )
                  (     0          1         -1      )

 cart.    s(19) = (  0.0000000  0.0000000 -1.0000000 )
                  (  0.0000000 -1.0000000  0.0000000 )
                  (  1.0000000  0.0000000  0.0000000 )


      isym = 20     inv.  90 deg rotation - cart. axis [0,-1,0]  

 cryst.   s(20) = (    -1          1          0      )
                  (    -1          0          1      )
                  (    -1          0          0      )

 cart.    s(20) = (  0.0000000  0.0000000  1.0000000 )
                  (  0.0000000 -1.0000000  0.0000000 )
                  ( -1.0000000  0.0000000  0.0000000 )


      isym = 21     inv. 180 deg rotation - cart. axis [0,1,1]   

 cryst.   s(21) = (    -1          0          0      )
                  (    -1          1          0      )
                  (    -1          0          1      )

 cart.    s(21) = (  1.0000000  0.0000000  0.0000000 )
                  (  0.0000000  0.0000000 -1.0000000 )
                  (  0.0000000 -1.0000000  0.0000000 )


      isym = 22     inv. 180 deg rotation - cart. axis [0,1,-1]  

 cryst.   s(22) = (     1          0          0      )
                  (     0          0          1      )
                  (     0          1          0      )

 cart.    s(22) = (  1.0000000  0.0000000  0.0000000 )
                  (  0.0000000  0.0000000  1.0000000 )
                  (  0.0000000  1.0000000  0.0000000 )


      isym = 23     inv.  90 deg rotation - cart. axis [-1,0,0]  

 cryst.   s(23) = (     0          1         -1      )
                  (     0          0         -1      )
                  (     1          0         -1      )

 cart.    s(23) = ( -1.0000000  0.0000000  0.0000000 )
                  (  0.0000000  0.0000000 -1.0000000 )
                  (  0.0000000  1.0000000  0.0000000 )


      isym = 24     inv.  90 deg rotation - cart. axis [1,0,0]   

 cryst.   s(24) = (     0         -1          1      )
                  (     1         -1          0      )
                  (     0         -1          0      )

 cart.    s(24) = ( -1.0000000  0.0000000  0.0000000 )
                  (  0.0000000  0.0000000  1.0000000 )
                  (  0.0000000 -1.0000000  0.0000000 )


   Cartesian axes

     site n.     atom                  positions (alat units)
         1           Sn  tau(   1) = (   0.0000000   0.0000000   0.0000000  )
         2           Sn  tau(   2) = (   0.3535534   0.3535534   0.3535534  )

   Crystallographic axes

     site n.     atom                  positions (cryst. coord.)
         1           Sn  tau(   1) = (  0.0000000  0.0000000  0.0000000  )
         2           Sn  tau(   2) = (  0.2500000  0.2500000  0.2500000  )

     number of k points=   120  gaussian smearing, width (Ry)=  0.0001
                       cart. coord. in units 2pi/alat
        k(    1) = (   0.0000000   0.0000000   0.0000000), wk =   0.0005926
        k(    2) = (   0.0471405   0.0471405  -0.0471405), wk =   0.0047407
        k(    3) = (   0.0942809   0.0942809  -0.0942809), wk =   0.0047407
        k(    4) = (   0.1414214   0.1414214  -0.1414214), wk =   0.0047407
        k(    5) = (   0.1885618   0.1885618  -0.1885618), wk =   0.0047407
        k(    6) = (   0.2357023   0.2357023  -0.2357023), wk =   0.0047407
        k(    7) = (   0.2828427   0.2828427  -0.2828427), wk =   0.0047407
        k(    8) = (   0.3299832   0.3299832  -0.3299832), wk =   0.0047407
        k(    9) = (   0.0942809   0.0000000   0.0000000), wk =   0.0035556
        k(   10) = (   0.1414214   0.0471405  -0.0471405), wk =   0.0142222
        k(   11) = (   0.1885618   0.0942809  -0.0942809), wk =   0.0142222
        k(   12) = (   0.2357023   0.1414214  -0.1414214), wk =   0.0142222
        k(   13) = (   0.2828427   0.1885618  -0.1885618), wk =   0.0142222
        k(   14) = (   0.3299832   0.2357023  -0.2357023), wk =   0.0142222
        k(   15) = (   0.3771236   0.2828427  -0.2828427), wk =   0.0142222
        k(   16) = (  -0.2828427  -0.3771236   0.3771236), wk =   0.0142222
        k(   17) = (  -0.2357023  -0.3299832   0.3299832), wk =   0.0142222
        k(   18) = (  -0.1885618  -0.2828427   0.2828427), wk =   0.0142222
        k(   19) = (  -0.1414214  -0.2357023   0.2357023), wk =   0.0142222
        k(   20) = (  -0.0942809  -0.1885618   0.1885618), wk =   0.0142222
        k(   21) = (  -0.0471405  -0.1414214   0.1414214), wk =   0.0142222
        k(   22) = (   0.0000000  -0.0942809   0.0942809), wk =   0.0071111
        k(   23) = (   0.1885618   0.0000000   0.0000000), wk =   0.0035556
        k(   24) = (   0.2357023   0.0471405  -0.0471405), wk =   0.0142222
        k(   25) = (   0.2828427   0.0942809  -0.0942809), wk =   0.0142222
        k(   26) = (   0.3299832   0.1414214  -0.1414214), wk =   0.0142222
        k(   27) = (   0.3771236   0.1885618  -0.1885618), wk =   0.0142222
        k(   28) = (   0.4242641   0.2357023  -0.2357023), wk =   0.0142222
        k(   29) = (  -0.2357023  -0.4242641   0.4242641), wk =   0.0142222
        k(   30) = (  -0.1885618  -0.3771236   0.3771236), wk =   0.0142222
        k(   31) = (  -0.1414214  -0.3299832   0.3299832), wk =   0.0142222
        k(   32) = (  -0.0942809  -0.2828427   0.2828427), wk =   0.0142222
        k(   33) = (  -0.0471405  -0.2357023   0.2357023), wk =   0.0142222
        k(   34) = (   0.0000000  -0.1885618   0.1885618), wk =   0.0071111
        k(   35) = (   0.2828427   0.0000000   0.0000000), wk =   0.0035556
        k(   36) = (   0.3299832   0.0471405  -0.0471405), wk =   0.0142222
        k(   37) = (   0.3771236   0.0942809  -0.0942809), wk =   0.0142222
        k(   38) = (   0.4242641   0.1414214  -0.1414214), wk =   0.0142222
        k(   39) = (   0.4714045   0.1885618  -0.1885618), wk =   0.0142222
        k(   40) = (  -0.1885618  -0.4714045   0.4714045), wk =   0.0142222
        k(   41) = (  -0.1414214  -0.4242641   0.4242641), wk =   0.0142222
        k(   42) = (  -0.0942809  -0.3771236   0.3771236), wk =   0.0142222
        k(   43) = (  -0.0471405  -0.3299832   0.3299832), wk =   0.0142222
        k(   44) = (   0.0000000  -0.2828427   0.2828427), wk =   0.0071111
        k(   45) = (   0.3771236   0.0000000   0.0000000), wk =   0.0035556
        k(   46) = (   0.4242641   0.0471405  -0.0471405), wk =   0.0142222
        k(   47) = (   0.4714045   0.0942809  -0.0942809), wk =   0.0142222
        k(   48) = (   0.5185450   0.1414214  -0.1414214), wk =   0.0142222
        k(   49) = (  -0.1414214  -0.5185450   0.5185450), wk =   0.0142222
        k(   50) = (  -0.0942809  -0.4714045   0.4714045), wk =   0.0142222
        k(   51) = (  -0.0471405  -0.4242641   0.4242641), wk =   0.0142222
        k(   52) = (  -0.0000000  -0.3771236   0.3771236), wk =   0.0071111
        k(   53) = (   0.4714045   0.0000000   0.0000000), wk =   0.0035556
        k(   54) = (   0.5185450   0.0471405  -0.0471405), wk =   0.0142222
        k(   55) = (   0.5656854   0.0942809  -0.0942809), wk =   0.0142222
        k(   56) = (  -0.0942809  -0.5656854   0.5656854), wk =   0.0142222
        k(   57) = (  -0.0471405  -0.5185450   0.5185450), wk =   0.0142222
        k(   58) = (  -0.0000000  -0.4714045   0.4714045), wk =   0.0071111
        k(   59) = (   0.5656854   0.0000000   0.0000000), wk =   0.0035556
        k(   60) = (   0.6128259   0.0471405  -0.0471405), wk =   0.0142222
        k(   61) = (  -0.0471405  -0.6128259   0.6128259), wk =   0.0142222
        k(   62) = (   0.0000000  -0.5656854   0.5656854), wk =   0.0071111
        k(   63) = (   0.6599663   0.0000000   0.0000000), wk =   0.0035556
        k(   64) = (   0.0000000  -0.6599663   0.6599663), wk =   0.0071111
        k(   65) = (   0.1885618   0.0942809  -0.0000000), wk =   0.0142222
        k(   66) = (   0.2357023   0.1414214  -0.0471405), wk =   0.0284444
        k(   67) = (   0.2828427   0.1885618  -0.0942809), wk =   0.0284444
        k(   68) = (   0.3299832   0.2357023  -0.1414214), wk =   0.0284444
        k(   69) = (   0.3771236   0.2828427  -0.1885618), wk =   0.0284444
        k(   70) = (  -0.2828427  -0.3771236   0.4714045), wk =   0.0284444
        k(   71) = (   0.2828427   0.0942809   0.0000000), wk =   0.0142222
        k(   72) = (   0.3299832   0.1414214  -0.0471405), wk =   0.0284444
        k(   73) = (   0.3771236   0.1885618  -0.0942809), wk =   0.0284444
        k(   74) = (   0.4242641   0.2357023  -0.1414214), wk =   0.0284444
        k(   75) = (  -0.2357023  -0.4242641   0.5185450), wk =   0.0284444
        k(   76) = (  -0.1885618  -0.3771236   0.4714045), wk =   0.0284444
        k(   77) = (  -0.1414214  -0.3299832   0.4242641), wk =   0.0284444
        k(   78) = (  -0.0942809  -0.2828427   0.3771236), wk =   0.0284444
        k(   79) = (  -0.0471405  -0.2357023   0.3299832), wk =   0.0284444
        k(   80) = (   0.0000000  -0.1885618   0.2828427), wk =   0.0142222
        k(   81) = (   0.3771236   0.0942809   0.0000000), wk =   0.0142222
        k(   82) = (   0.4242641   0.1414214  -0.0471405), wk =   0.0284444
        k(   83) = (   0.4714045   0.1885618  -0.0942809), wk =   0.0284444
        k(   84) = (  -0.1885618  -0.4714045   0.5656854), wk =   0.0284444
        k(   85) = (  -0.1414214  -0.4242641   0.5185450), wk =   0.0284444
        k(   86) = (  -0.0942809  -0.3771236   0.4714045), wk =   0.0284444
        k(   87) = (  -0.0471405  -0.3299832   0.4242641), wk =   0.0284444
        k(   88) = (   0.0000000  -0.2828427   0.3771236), wk =   0.0142222
        k(   89) = (   0.4714045   0.0942809  -0.0000000), wk =   0.0142222
        k(   90) = (   0.5185450   0.1414214  -0.0471405), wk =   0.0284444
        k(   91) = (  -0.1414214  -0.5185450   0.6128259), wk =   0.0284444
        k(   92) = (  -0.0942809  -0.4714045   0.5656854), wk =   0.0284444
        k(   93) = (  -0.0471405  -0.4242641   0.5185450), wk =   0.0284444
        k(   94) = (  -0.0000000  -0.3771236   0.4714045), wk =   0.0142222
        k(   95) = (   0.5656854   0.0942809   0.0000000), wk =   0.0142222
        k(   96) = (  -0.0942809  -0.5656854   0.6599663), wk =   0.0284444
        k(   97) = (  -0.0471405  -0.5185450   0.6128259), wk =   0.0284444
        k(   98) = (   0.0000000  -0.4714045   0.5656854), wk =   0.0142222
        k(   99) = (  -0.0471405  -0.6128259   0.7071068), wk =   0.0142222
        k(  100) = (   0.0000000  -0.5656854   0.6599663), wk =   0.0142222
        k(  101) = (   0.3771236   0.1885618  -0.0000000), wk =   0.0142222
        k(  102) = (   0.4242641   0.2357023  -0.0471405), wk =   0.0284444
        k(  103) = (  -0.2357023  -0.4242641   0.6128259), wk =   0.0284444
        k(  104) = (  -0.1885618  -0.3771236   0.5656854), wk =   0.0284444
        k(  105) = (   0.4714045   0.1885618  -0.0000000), wk =   0.0142222
        k(  106) = (  -0.1885618  -0.4714045   0.6599663), wk =   0.0284444
        k(  107) = (  -0.1414214  -0.4242641   0.6128259), wk =   0.0284444
        k(  108) = (  -0.0942809  -0.3771236   0.5656854), wk =   0.0284444
        k(  109) = (  -0.0471405  -0.3299832   0.5185450), wk =   0.0284444
        k(  110) = (   0.0000000  -0.2828427   0.4714045), wk =   0.0142222
        k(  111) = (  -0.1414214  -0.5185450   0.7071068), wk =   0.0142222
        k(  112) = (  -0.0942809  -0.4714045   0.6599663), wk =   0.0284444
        k(  113) = (  -0.0471405  -0.4242641   0.6128259), wk =   0.0284444
        k(  114) = (   0.0000000  -0.3771236   0.5656854), wk =   0.0142222
        k(  115) = (  -0.0471405  -0.5185450   0.7071068), wk =   0.0142222
        k(  116) = (   0.0000000  -0.4714045   0.6599663), wk =   0.0142222
        k(  117) = (  -0.1414214  -0.4242641   0.7071068), wk =   0.0142222
        k(  118) = (  -0.0942809  -0.3771236   0.6599663), wk =   0.0284444
        k(  119) = (  -0.0471405  -0.4242641   0.7071068), wk =   0.0142222
        k(  120) = (  -0.0000000  -0.3771236   0.6599663), wk =   0.0142222

                       cryst. coord.
        k(    1) = (   0.0000000   0.0000000   0.0000000), wk =   0.0005926
        k(    2) = (   0.0000000   0.0000000   0.0666667), wk =   0.0047407
        k(    3) = (   0.0000000   0.0000000   0.1333333), wk =   0.0047407
        k(    4) = (   0.0000000   0.0000000   0.2000000), wk =   0.0047407
        k(    5) = (   0.0000000   0.0000000   0.2666667), wk =   0.0047407
        k(    6) = (   0.0000000   0.0000000   0.3333333), wk =   0.0047407
        k(    7) = (   0.0000000   0.0000000   0.4000000), wk =   0.0047407
        k(    8) = (   0.0000000   0.0000000   0.4666667), wk =   0.0047407
        k(    9) = (   0.0000000   0.0666667   0.0666667), wk =   0.0035556
        k(   10) = (   0.0000000   0.0666667   0.1333333), wk =   0.0142222
        k(   11) = (   0.0000000   0.0666667   0.2000000), wk =   0.0142222
        k(   12) = (   0.0000000   0.0666667   0.2666667), wk =   0.0142222
        k(   13) = (   0.0000000   0.0666667   0.3333333), wk =   0.0142222
        k(   14) = (   0.0000000   0.0666667   0.4000000), wk =   0.0142222
        k(   15) = (   0.0000000   0.0666667   0.4666667), wk =   0.0142222
        k(   16) = (   0.0000000   0.0666667  -0.4666667), wk =   0.0142222
        k(   17) = (   0.0000000   0.0666667  -0.4000000), wk =   0.0142222
        k(   18) = (   0.0000000   0.0666667  -0.3333333), wk =   0.0142222
        k(   19) = (   0.0000000   0.0666667  -0.2666667), wk =   0.0142222
        k(   20) = (   0.0000000   0.0666667  -0.2000000), wk =   0.0142222
        k(   21) = (   0.0000000   0.0666667  -0.1333333), wk =   0.0142222
        k(   22) = (   0.0000000   0.0666667  -0.0666667), wk =   0.0071111
        k(   23) = (   0.0000000   0.1333333   0.1333333), wk =   0.0035556
        k(   24) = (   0.0000000   0.1333333   0.2000000), wk =   0.0142222
        k(   25) = (   0.0000000   0.1333333   0.2666667), wk =   0.0142222
        k(   26) = (   0.0000000   0.1333333   0.3333333), wk =   0.0142222
        k(   27) = (   0.0000000   0.1333333   0.4000000), wk =   0.0142222
        k(   28) = (   0.0000000   0.1333333   0.4666667), wk =   0.0142222
        k(   29) = (   0.0000000   0.1333333  -0.4666667), wk =   0.0142222
        k(   30) = (   0.0000000   0.1333333  -0.4000000), wk =   0.0142222
        k(   31) = (   0.0000000   0.1333333  -0.3333333), wk =   0.0142222
        k(   32) = (   0.0000000   0.1333333  -0.2666667), wk =   0.0142222
        k(   33) = (   0.0000000   0.1333333  -0.2000000), wk =   0.0142222
        k(   34) = (   0.0000000   0.1333333  -0.1333333), wk =   0.0071111
        k(   35) = (   0.0000000   0.2000000   0.2000000), wk =   0.0035556
        k(   36) = (   0.0000000   0.2000000   0.2666667), wk =   0.0142222
        k(   37) = (   0.0000000   0.2000000   0.3333333), wk =   0.0142222
        k(   38) = (   0.0000000   0.2000000   0.4000000), wk =   0.0142222
        k(   39) = (   0.0000000   0.2000000   0.4666667), wk =   0.0142222
        k(   40) = (   0.0000000   0.2000000  -0.4666667), wk =   0.0142222
        k(   41) = (   0.0000000   0.2000000  -0.4000000), wk =   0.0142222
        k(   42) = (   0.0000000   0.2000000  -0.3333333), wk =   0.0142222
        k(   43) = (   0.0000000   0.2000000  -0.2666667), wk =   0.0142222
        k(   44) = (   0.0000000   0.2000000  -0.2000000), wk =   0.0071111
        k(   45) = (   0.0000000   0.2666667   0.2666667), wk =   0.0035556
        k(   46) = (   0.0000000   0.2666667   0.3333333), wk =   0.0142222
        k(   47) = (   0.0000000   0.2666667   0.4000000), wk =   0.0142222
        k(   48) = (   0.0000000   0.2666667   0.4666667), wk =   0.0142222
        k(   49) = (   0.0000000   0.2666667  -0.4666667), wk =   0.0142222
        k(   50) = (   0.0000000   0.2666667  -0.4000000), wk =   0.0142222
        k(   51) = (   0.0000000   0.2666667  -0.3333333), wk =   0.0142222
        k(   52) = (   0.0000000   0.2666667  -0.2666667), wk =   0.0071111
        k(   53) = (   0.0000000   0.3333333   0.3333333), wk =   0.0035556
        k(   54) = (   0.0000000   0.3333333   0.4000000), wk =   0.0142222
        k(   55) = (   0.0000000   0.3333333   0.4666667), wk =   0.0142222
        k(   56) = (   0.0000000   0.3333333  -0.4666667), wk =   0.0142222
        k(   57) = (   0.0000000   0.3333333  -0.4000000), wk =   0.0142222
        k(   58) = (   0.0000000   0.3333333  -0.3333333), wk =   0.0071111
        k(   59) = (   0.0000000   0.4000000   0.4000000), wk =   0.0035556
        k(   60) = (   0.0000000   0.4000000   0.4666667), wk =   0.0142222
        k(   61) = (   0.0000000   0.4000000  -0.4666667), wk =   0.0142222
        k(   62) = (   0.0000000   0.4000000  -0.4000000), wk =   0.0071111
        k(   63) = (   0.0000000   0.4666667   0.4666667), wk =   0.0035556
        k(   64) = (   0.0000000   0.4666667  -0.4666667), wk =   0.0071111
        k(   65) = (   0.0666667   0.1333333   0.2000000), wk =   0.0142222
        k(   66) = (   0.0666667   0.1333333   0.2666667), wk =   0.0284444
        k(   67) = (   0.0666667   0.1333333   0.3333333), wk =   0.0284444
        k(   68) = (   0.0666667   0.1333333   0.4000000), wk =   0.0284444
        k(   69) = (   0.0666667   0.1333333   0.4666667), wk =   0.0284444
        k(   70) = (   0.0666667   0.1333333  -0.4666667), wk =   0.0284444
        k(   71) = (   0.0666667   0.2000000   0.2666667), wk =   0.0142222
        k(   72) = (   0.0666667   0.2000000   0.3333333), wk =   0.0284444
        k(   73) = (   0.0666667   0.2000000   0.4000000), wk =   0.0284444
        k(   74) = (   0.0666667   0.2000000   0.4666667), wk =   0.0284444
        k(   75) = (   0.0666667   0.2000000  -0.4666667), wk =   0.0284444
        k(   76) = (   0.0666667   0.2000000  -0.4000000), wk =   0.0284444
        k(   77) = (   0.0666667   0.2000000  -0.3333333), wk =   0.0284444
        k(   78) = (   0.0666667   0.2000000  -0.2666667), wk =   0.0284444
        k(   79) = (   0.0666667   0.2000000  -0.2000000), wk =   0.0284444
        k(   80) = (   0.0666667   0.2000000  -0.1333333), wk =   0.0142222
        k(   81) = (   0.0666667   0.2666667   0.3333333), wk =   0.0142222
        k(   82) = (   0.0666667   0.2666667   0.4000000), wk =   0.0284444
        k(   83) = (   0.0666667   0.2666667   0.4666667), wk =   0.0284444
        k(   84) = (   0.0666667   0.2666667  -0.4666667), wk =   0.0284444
        k(   85) = (   0.0666667   0.2666667  -0.4000000), wk =   0.0284444
        k(   86) = (   0.0666667   0.2666667  -0.3333333), wk =   0.0284444
        k(   87) = (   0.0666667   0.2666667  -0.2666667), wk =   0.0284444
        k(   88) = (   0.0666667   0.2666667  -0.2000000), wk =   0.0142222
        k(   89) = (   0.0666667   0.3333333   0.4000000), wk =   0.0142222
        k(   90) = (   0.0666667   0.3333333   0.4666667), wk =   0.0284444
        k(   91) = (   0.0666667   0.3333333  -0.4666667), wk =   0.0284444
        k(   92) = (   0.0666667   0.3333333  -0.4000000), wk =   0.0284444
        k(   93) = (   0.0666667   0.3333333  -0.3333333), wk =   0.0284444
        k(   94) = (   0.0666667   0.3333333  -0.2666667), wk =   0.0142222
        k(   95) = (   0.0666667   0.4000000   0.4666667), wk =   0.0142222
        k(   96) = (   0.0666667   0.4000000  -0.4666667), wk =   0.0284444
        k(   97) = (   0.0666667   0.4000000  -0.4000000), wk =   0.0284444
        k(   98) = (   0.0666667   0.4000000  -0.3333333), wk =   0.0142222
        k(   99) = (   0.0666667   0.4666667  -0.4666667), wk =   0.0142222
        k(  100) = (   0.0666667   0.4666667  -0.4000000), wk =   0.0142222
        k(  101) = (   0.1333333   0.2666667   0.4000000), wk =   0.0142222
        k(  102) = (   0.1333333   0.2666667   0.4666667), wk =   0.0284444
        k(  103) = (   0.1333333   0.2666667  -0.4666667), wk =   0.0284444
        k(  104) = (   0.1333333   0.2666667  -0.4000000), wk =   0.0284444
        k(  105) = (   0.1333333   0.3333333   0.4666667), wk =   0.0142222
        k(  106) = (   0.1333333   0.3333333  -0.4666667), wk =   0.0284444
        k(  107) = (   0.1333333   0.3333333  -0.4000000), wk =   0.0284444
        k(  108) = (   0.1333333   0.3333333  -0.3333333), wk =   0.0284444
        k(  109) = (   0.1333333   0.3333333  -0.2666667), wk =   0.0284444
        k(  110) = (   0.1333333   0.3333333  -0.2000000), wk =   0.0142222
        k(  111) = (   0.1333333   0.4000000  -0.4666667), wk =   0.0142222
        k(  112) = (   0.1333333   0.4000000  -0.4000000), wk =   0.0284444
        k(  113) = (   0.1333333   0.4000000  -0.3333333), wk =   0.0284444
        k(  114) = (   0.1333333   0.4000000  -0.2666667), wk =   0.0142222
        k(  115) = (   0.1333333   0.4666667  -0.4000000), wk =   0.0142222
        k(  116) = (   0.1333333   0.4666667  -0.3333333), wk =   0.0142222
        k(  117) = (   0.2000000   0.4000000  -0.4000000), wk =   0.0142222
        k(  118) = (   0.2000000   0.4000000  -0.3333333), wk =   0.0284444
        k(  119) = (   0.2000000   0.4666667  -0.3333333), wk =   0.0142222
        k(  120) = (   0.2000000   0.4666667  -0.2666667), wk =   0.0142222

     Dense  grid:    47447 G-vectors     FFT dimensions: (  54,  54,  54)

     Largest allocated arrays     est. size (Mb)     dimensions
        Kohn-Sham Wavefunctions         0.10 Mb     (     375,   18)
        NL pseudopotentials             0.21 Mb     (     375,   36)
        Each V/rho on FFT grid          0.18 Mb     (   11664)
        Each G-vector array             0.02 Mb     (    2965)
        G-vector shells                 0.00 Mb     (     414)
     Largest temporary arrays     est. size (Mb)     dimensions
        Auxiliary wavefunctions         0.41 Mb     (     375,   72)
        Each subspace H/S matrix        0.08 Mb     (      72,   72)
        Each <psi_i|beta_j> matrix      0.01 Mb     (      36,   18)
        Arrays for rho mixing           1.42 Mb     (   11664,    8)

     Initial potential from superposition of free atoms

     starting charge   27.82674, renormalised to   28.00000
     Starting wfc are random

     total cpu time spent up to now is        6.9 secs

     Self-consistent Calculation

     iteration #  1     ecut=    80.00 Ry     beta=0.70
     Davidson diagonalization with overlap
     ethr =  1.00E-02,  avg # of iterations =  7.7

     Threshold (ethr) on eigenvalues was too large:
     Diagonalizing with lowered threshold

     Davidson diagonalization with overlap
     ethr =  1.18E-04,  avg # of iterations =  5.9

     total cpu time spent up to now is       55.3 secs

     total energy              =    -256.21687114 Ry
     Harris-Foulkes estimate   =    -256.22989437 Ry
     estimated scf accuracy    <       0.03250742 Ry

     iteration #  2     ecut=    80.00 Ry     beta=0.70
     Davidson diagonalization with overlap
     ethr =  1.16E-04,  avg # of iterations =  2.1

     total cpu time spent up to now is       72.6 secs

     total energy              =    -256.22134559 Ry
     Harris-Foulkes estimate   =    -256.22158436 Ry
     estimated scf accuracy    <       0.00186554 Ry

     iteration #  3     ecut=    80.00 Ry     beta=0.70
     Davidson diagonalization with overlap
     ethr =  6.66E-06,  avg # of iterations =  2.9

     total cpu time spent up to now is       84.7 secs

     total energy              =    -256.22152061 Ry
     Harris-Foulkes estimate   =    -256.22150146 Ry
     estimated scf accuracy    <       0.00010901 Ry

     iteration #  4     ecut=    80.00 Ry     beta=0.70
     Davidson diagonalization with overlap
     ethr =  3.89E-07,  avg # of iterations =  2.8

     total cpu time spent up to now is      103.4 secs

     End of self-consistent calculation

          k = 0.0000 0.0000 0.0000 (  5961 PWs)   bands (ev):

   -13.8629 -13.8629 -13.8629 -13.8113 -13.8113 -13.5488 -13.5488 -13.5488
   -13.5461 -13.5461  -2.4637   6.7070   7.8422   7.8422   7.8422   9.6163
     9.6186   9.9130

     occupation numbers 
     1.0000   1.0000   1.0000   1.0000   1.0000   1.0000   1.0000   1.0000
     1.0000   1.0000   1.0000   1.0000   0.0000   0.0000   0.0000   0.0000
     0.0000   0.0000

          k = 0.0471 0.0471-0.0471 (  5931 PWs)   bands (ev):

   -13.8660 -13.8660 -13.8619 -13.8071 -13.8071 -13.5595 -13.5595 -13.5500
   -13.5361 -13.5361  -2.4232   6.2179   7.7575   7.7575   8.0771   9.6163
     9.6186  10.0234

     occupation numbers 
     1.0000   1.0000   1.0000   1.0000   1.0000   1.0000   1.0000   1.0000
     1.0000   1.0000   1.0000   1.0000   0.1418   0.1417   0.0000   0.0000
     0.0000   0.0000

          k = 0.0943 0.0943-0.0943 (  5925 PWs)   bands (ev):

   -13.8728 -13.8728 -13.8592 -13.7973 -13.7973 -13.5713 -13.5713 -13.5533
   -13.5262 -13.5262  -2.3027   5.3460   7.5556   7.5556   8.2036   9.6163
     9.6186  10.2883

     occupation numbers 
     1.0000   1.0000   1.0000   1.0000   1.0000   1.0000   1.0000   1.0000
     1.0000   1.0000   1.0000   1.0000   1.0000   1.0000   0.0000   0.0000
     0.0000   0.0000

          k = 0.1414 0.1414-0.1414 (  5946 PWs)   bands (ev):

   -13.8799 -13.8799 -13.8550 -13.7861 -13.7861 -13.5821 -13.5821 -13.5583
   -13.5179 -13.5179  -2.1063   4.4265   7.3193   7.3193   8.1104   9.6163
     9.6186  10.5845

     occupation numbers 
     1.0000   1.0000   1.0000   1.0000   1.0000   1.0000   1.0000   1.0000
     1.0000   1.0000   1.0000   1.0000   1.0000   1.0000   0.0000   0.0000
     0.0000   0.0000

          k = 0.1886 0.1886-0.1886 (  5946 PWs)   bands (ev):

   -13.8857 -13.8857 -13.8501 -13.7758 -13.7758 -13.5911 -13.5911 -13.5642
   -13.5115 -13.5115  -1.8426   3.5457   7.0999   7.0999   7.9522   9.6163
     9.6186  10.8108

     occupation numbers 
     1.0000   1.0000   1.0000   1.0000   1.0000   1.0000   1.0000   1.0000
     1.0000   1.0000   1.0000   1.0000   1.0000   1.0000   0.0000   0.0000
     0.0000   0.0000

          k = 0.2357 0.2357-0.2357 (  5888 PWs)   bands (ev):

   -13.8899 -13.8899 -13.8453 -13.7679 -13.7679 -13.5975 -13.5975 -13.5700
   -13.5071 -13.5071  -1.5309   2.7541   6.9226   6.9226   7.8057   9.6163
     9.6186  10.9271

     occupation numbers 
     1.0000   1.0000   1.0000   1.0000   1.0000   1.0000   1.0000   1.0000
     1.0000   1.0000   1.0000   1.0000   1.0000   1.0000   0.0000   0.0000
     0.0000   0.0000

          k = 0.2828 0.2828-0.2828 (  5927 PWs)   bands (ev):

   -13.8924 -13.8924 -13.8415 -13.7628 -13.7628 -13.6014 -13.6014 -13.5746
   -13.5043 -13.5043  -1.2154   2.1117   6.7996   6.7996   7.6996   9.6164
     9.6186  10.9615

     occupation numbers 
     1.0000   1.0000   1.0000   1.0000   1.0000   1.0000   1.0000   1.0000
     1.0000   1.0000   1.0000   1.0000   1.0000   1.0000   1.0000   0.0000
     0.0000   0.0000

          k = 0.3300 0.3300-0.3300 (  5921 PWs)   bands (ev):

   -13.8936 -13.8936 -13.8393 -13.7604 -13.7604 -13.6031 -13.6031 -13.5771
   -13.5030 -13.5030  -0.9925   1.7235   6.7369   6.7369   7.6448   9.6163
     9.6186  10.9637

     occupation numbers 
     1.0000   1.0000   1.0000   1.0000   1.0000   1.0000   1.0000   1.0000
     1.0000   1.0000   1.0000   1.0000   1.0000   1.0000   1.0000   0.0000
     0.0000   0.0000

          k = 0.0943 0.0000 0.0000 (  5925 PWs)   bands (ev):

   -13.8655 -13.8651 -13.8651 -13.8083 -13.8029 -13.5703 -13.5489 -13.5458
   -13.5458 -13.5314  -2.4096   6.1309   7.6037   7.6037   8.3948   9.6161
     9.6186   9.7453

     occupation numbers 
     1.0000   1.0000   1.0000   1.0000   1.0000   1.0000   1.0000   1.0000
     1.0000   1.0000   1.0000   1.0000   1.0000   1.0000   0.0000   0.0000
     0.0000   0.0000

          k = 0.1414 0.0471-0.0471 (  5933 PWs)   bands (ev):

   -13.8727 -13.8696 -13.8625 -13.8021 -13.7928 -13.5833 -13.5597 -13.5460
   -13.5355 -13.5238  -2.3155   5.4863   7.3700   7.4043   8.6650   9.6160
     9.6186   9.7512

     occupation numbers 
     1.0000   1.0000   1.0000   1.0000   1.0000   1.0000   1.0000   1.0000
     1.0000   1.0000   1.0000   1.0000   1.0000   1.0000   0.0000   0.0000
     0.0000   0.0000

          k = 0.1886 0.0943-0.0943 (  5926 PWs)   bands (ev):

   -13.8809 -13.8761 -13.8576 -13.7922 -13.7808 -13.5952 -13.5710 -13.5508
   -13.5258 -13.5153  -2.1438   4.6455   7.1284   7.1600   8.6522   9.6163
     9.6187  10.0190

     occupation numbers 
     1.0000   1.0000   1.0000   1.0000   1.0000   1.0000   1.0000   1.0000
     1.0000   1.0000   1.0000   1.0000   1.0000   1.0000   0.0000   0.0000
     0.0000   0.0000

          k = 0.2357 0.1414-0.1414 (  5935 PWs)   bands (ev):

   -13.8882 -13.8824 -13.8513 -13.7817 -13.7697 -13.6047 -13.5813 -13.5581
   -13.5177 -13.5079  -1.9011   3.7840   6.8968   6.9193   8.5095   9.6163
     9.6186  10.3594

     occupation numbers 
     1.0000   1.0000   1.0000   1.0000   1.0000   1.0000   1.0000   1.0000
     1.0000   1.0000   1.0000   1.0000   1.0000   1.0000   0.0000   0.0000
     0.0000   0.0000

          k = 0.2828 0.1886-0.1886 (  5928 PWs)   bands (ev):

   -13.8937 -13.8875 -13.8444 -13.7724 -13.7613 -13.6107 -13.5902 -13.5665
   -13.5113 -13.5023  -1.6022   2.9780   6.6584   6.7625   8.3509   9.6164
     9.6186  10.6154

     occupation numbers 
     1.0000   1.0000   1.0000   1.0000   1.0000   1.0000   1.0000   1.0000
     1.0000   1.0000   1.0000   1.0000   1.0000   1.0000   0.0000   0.0000
     0.0000   0.0000

          k = 0.3300 0.2357-0.2357 (  5919 PWs)   bands (ev):

   -13.8973 -13.8913 -13.8382 -13.7650 -13.7568 -13.6126 -13.5974 -13.5745
   -13.5065 -13.4987  -1.2801   2.2886   6.4674   6.6678   8.2205   9.6164
     9.6186  10.7552

     occupation numbers 
     1.0000   1.0000   1.0000   1.0000   1.0000   1.0000   1.0000   1.0000
     1.0000   1.0000   1.0000   1.0000   1.0000   1.0000   0.0000   0.0000
     0.0000   0.0000

          k = 0.3771 0.2828-0.2828 (  5921 PWs)   bands (ev):

   -13.8990 -13.8938 -13.8338 -13.7595 -13.7559 -13.6105 -13.6032 -13.5808
   -13.5030 -13.4972  -1.0106   1.8054   6.3348   6.6389   8.1358   9.6164
     9.6186  10.8329

     occupation numbers 
     1.0000   1.0000   1.0000   1.0000   1.0000   1.0000   1.0000   1.0000
     1.0000   1.0000   1.0000   1.0000   1.0000   1.0000   0.0000   0.0000
     0.0000   0.0000

          k =-0.2828-0.3771 0.3771 (  5919 PWs)   bands (ev):

   -13.8988 -13.8951 -13.8323 -13.7580 -13.7562 -13.6074 -13.6060 -13.5838
   -13.5010 -13.4978  -0.9258   1.6669   6.2667   6.6760   8.1036   9.6164
     9.6186  10.8993

     occupation numbers 
     1.0000   1.0000   1.0000   1.0000   1.0000   1.0000   1.0000   1.0000
     1.0000   1.0000   1.0000   1.0000   1.0000   1.0000   0.0000   0.0000
     0.0000   0.0000

          k =-0.2357-0.3300 0.3300 (  5921 PWs)   bands (ev):

   -13.8969 -13.8953 -13.8339 -13.7622 -13.7555 -13.6095 -13.6010 -13.5820
   -13.5004 -13.5003  -1.0878   1.9367   6.2671   6.7765   8.1253   9.6164
     9.6186  10.9700

     occupation numbers 
     1.0000   1.0000   1.0000   1.0000   1.0000   1.0000   1.0000   1.0000
     1.0000   1.0000   1.0000   1.0000   1.0000   1.0000   0.0000   0.0000
     0.0000   0.0000

          k =-0.1886-0.2828 0.2828 (  5926 PWs)   bands (ev):

   -13.8940 -13.8934 -13.8385 -13.7680 -13.7582 -13.6086 -13.5966 -13.5751
   -13.5051 -13.5014  -1.3873   2.5024   6.3386   6.9347   8.1979   9.6163
     9.6186  10.9158

     occupation numbers 
     1.0000   1.0000   1.0000   1.0000   1.0000   1.0000   1.0000   1.0000
     1.0000   1.0000   1.0000   1.0000   1.0000   1.0000   0.0000   0.0000
     0.0000   0.0000

          k =-0.1414-0.2357 0.2357 (  5936 PWs)   bands (ev):

   -13.8909 -13.8882 -13.8448 -13.7755 -13.7648 -13.6040 -13.5912 -13.5657
   -13.5117 -13.5044  -1.7073   3.2375   6.4827   7.1401   8.3111   9.6164
     9.6186  10.7587

     occupation numbers 
     1.0000   1.0000   1.0000   1.0000   1.0000   1.0000   1.0000   1.0000
     1.0000   1.0000   1.0000   1.0000   1.0000   1.0000   0.0000   0.0000
     0.0000   0.0000

          k =-0.0943-0.1886 0.1886 (  5928 PWs)   bands (ev):

   -13.8859 -13.8815 -13.8517 -13.7847 -13.7748 -13.5958 -13.5840 -13.5561
   -13.5201 -13.5094  -1.9898   4.0652   6.7005   7.3741   8.4376   9.6164
     9.6187  10.5189

     occupation numbers 
     1.0000   1.0000   1.0000   1.0000   1.0000   1.0000   1.0000   1.0000
     1.0000   1.0000   1.0000   1.0000   1.0000   1.0000   0.0000   0.0000
     0.0000   0.0000

          k =-0.0471-0.1414 0.1414 (  5935 PWs)   bands (ev):

   -13.8792 -13.8740 -13.8578 -13.7947 -13.7869 -13.5848 -13.5748 -13.5475
   -13.5303 -13.5166  -2.2097   4.9214   6.9939   7.6008   8.5054   9.6163
     9.6187  10.2416

     occupation numbers 
     1.0000   1.0000   1.0000   1.0000   1.0000   1.0000   1.0000   1.0000
     1.0000   1.0000   1.0000   1.0000   1.0000   1.0000   0.0000   0.0000
     0.0000   0.0000

          k = 0.0000-0.0943 0.0943 (  5915 PWs)   bands (ev):

   -13.8718 -13.8674 -13.8617 -13.8034 -13.7987 -13.5724 -13.5649 -13.5427
   -13.5399 -13.5256  -2.3559   5.7076   7.3673   7.7546   8.3718   9.6164
     9.6187  10.0374

     occupation numbers 
     1.0000   1.0000   1.0000   1.0000   1.0000   1.0000   1.0000   1.0000
     1.0000   1.0000   1.0000   1.0000   1.0000   0.9777   0.0000   0.0000
     0.0000   0.0000

          k = 0.1886 0.0000 0.0000 (  5922 PWs)   bands (ev):

   -13.8712 -13.8712 -13.8689 -13.7996 -13.7822 -13.5988 -13.5573 -13.5374
   -13.5374 -13.5230  -2.2478   5.2168   7.1220   7.1220   9.1884   9.3859
     9.6171   9.6196

     occupation numbers 
     1.0000   1.0000   1.0000   1.0000   1.0000   1.0000   1.0000   1.0000
     1.0000   1.0000   1.0000   1.0000   1.0000   1.0000   0.0000   0.0000
     0.0000   0.0000

          k = 0.2357 0.0471-0.0471 (  5931 PWs)   bands (ev):

   -13.8800 -13.8762 -13.8638 -13.7917 -13.7693 -13.6135 -13.5664 -13.5382
   -13.5293 -13.5168  -2.1013   4.6152   6.8515   6.8760   9.2966   9.4551
     9.6174   9.6209

     occupation numbers 
     1.0000   1.0000   1.0000   1.0000   1.0000   1.0000   1.0000   1.0000
     1.0000   1.0000   1.0000   1.0000   1.0000   1.0000   0.0000   0.0000
     0.0000   0.0000

          k = 0.2828 0.0943-0.0943 (  5922 PWs)   bands (ev):

   -13.8895 -13.8821 -13.8551 -13.7815 -13.7569 -13.6257 -13.5774 -13.5469
   -13.5203 -13.5072  -1.8812   3.8747   6.5387   6.6687   9.2021   9.6157
     9.6187   9.7936

     occupation numbers 
     1.0000   1.0000   1.0000   1.0000   1.0000   1.0000   1.0000   1.0000
     1.0000   1.0000   1.0000   1.0000   1.0000   1.0000   0.0000   0.0000
     0.0000   0.0000

          k = 0.3300 0.1414-0.1414 (  5925 PWs)   bands (ev):

   -13.8976 -13.8876 -13.8447 -13.7712 -13.7475 -13.6336 -13.5882 -13.5587
   -13.5125 -13.4985  -1.5983   3.1192   6.2305   6.5190   9.0496   9.6164
     9.6188  10.2096

     occupation numbers 
     1.0000   1.0000   1.0000   1.0000   1.0000   1.0000   1.0000   1.0000
     1.0000   1.0000   1.0000   1.0000   1.0000   1.0000   0.0000   0.0000
     0.0000   0.0000

          k = 0.3771 0.1886-0.1886 (  5906 PWs)   bands (ev):

   -13.9039 -13.8921 -13.8340 -13.7618 -13.7426 -13.6360 -13.5983 -13.5712
   -13.5061 -13.4918  -1.2773   2.4280   5.9664   6.4365   8.9042   9.6164
     9.6187  10.5307

     occupation numbers 
     1.0000   1.0000   1.0000   1.0000   1.0000   1.0000   1.0000   1.0000
     1.0000   1.0000   1.0000   1.0000   1.0000   1.0000   0.0000   0.0000
     0.0000   0.0000

          k = 0.4243 0.2357-0.2357 (  5914 PWs)   bands (ev):

   -13.9077 -13.8955 -13.8249 -13.7537 -13.7431 -13.6324 -13.6074 -13.5827
   -13.5011 -13.4878  -0.9758   1.8865   5.7650   6.4249   8.7960   9.6164
     9.6187  10.7072

     occupation numbers 
     1.0000   1.0000   1.0000   1.0000   1.0000   1.0000   1.0000   1.0000
     1.0000   1.0000   1.0000   1.0000   1.0000   1.0000   0.0000   0.0000
     0.0000   0.0000

          k =-0.2357-0.4243 0.4243 (  5917 PWs)   bands (ev):

   -13.9090 -13.8978 -13.8192 -13.7478 -13.7475 -13.6234 -13.6152 -13.5913
   -13.4976 -13.4868  -0.8133   1.6275   5.6361   6.4839   8.7366   9.6164
     9.6187  10.8201

     occupation numbers 
     1.0000   1.0000   1.0000   1.0000   1.0000   1.0000   1.0000   1.0000
     1.0000   1.0000   1.0000   1.0000   1.0000   1.0000   0.0000   0.0000
     0.0000   0.0000

          k =-0.1886-0.3771 0.3771 (  5910 PWs)   bands (ev):

   -13.9076 -13.8989 -13.8184 -13.7551 -13.7440 -13.6205 -13.6106 -13.5961
   -13.4958 -13.4890  -0.9027   1.7681   5.5872   6.6095   8.7283   9.6164
     9.6187  10.9305

     occupation numbers 
     1.0000   1.0000   1.0000   1.0000   1.0000   1.0000   1.0000   1.0000
     1.0000   1.0000   1.0000   1.0000   1.0000   1.0000   0.0000   0.0000
     0.0000   0.0000

          k =-0.1414-0.3300 0.3300 (  5919 PWs)   bands (ev):

   -13.9036 -13.8985 -13.8229 -13.7632 -13.7448 -13.6219 -13.6000 -13.5924
   -13.4957 -13.4943  -1.1764   2.2366   5.6262   6.7935   8.7653   9.6164
     9.6188  11.0413

     occupation numbers 
     1.0000   1.0000   1.0000   1.0000   1.0000   1.0000   1.0000   1.0000
     1.0000   1.0000   1.0000   1.0000   1.0000   1.0000   0.0000   0.0000
     0.0000   0.0000

          k =-0.0943-0.2828 0.2828 (  5926 PWs)   bands (ev):

   -13.8973 -13.8963 -13.8315 -13.7712 -13.7507 -13.6182 -13.5968 -13.5770
   -13.5027 -13.4978  -1.4996   2.8842   5.7646   7.0213   8.8300   9.6164
     9.6188  10.9712

     occupation numbers 
     1.0000   1.0000   1.0000   1.0000   1.0000   1.0000   1.0000   1.0000
     1.0000   1.0000   1.0000   1.0000   1.0000   1.0000   0.0000   0.0000
     0.0000   0.0000

          k =-0.0471-0.2357 0.2357 (  5937 PWs)   bands (ev):

   -13.8922 -13.8892 -13.8420 -13.7794 -13.7610 -13.6098 -13.5915 -13.5615
   -13.5135 -13.5020  -1.7979   3.6059   6.0215   7.2670   8.8772   9.6165
     9.6189  10.6900

     occupation numbers 
     1.0000   1.0000   1.0000   1.0000   1.0000   1.0000   1.0000   1.0000
     1.0000   1.0000   1.0000   1.0000   1.0000   1.0000   0.0000   0.0000
     0.0000   0.0000

          k = 0.0000-0.1886 0.1886 (  5919 PWs)   bands (ev):

   -13.8862 -13.8805 -13.8517 -13.7877 -13.7739 -13.5982 -13.5838 -13.5491
   -13.5253 -13.5083  -2.0393   4.3150   6.4262   7.4843   8.8028   9.6164
     9.6188  10.4077

     occupation numbers 
     1.0000   1.0000   1.0000   1.0000   1.0000   1.0000   1.0000   1.0000
     1.0000   1.0000   1.0000   1.0000   1.0000   1.0000   0.0000   0.0000
     0.0000   0.0000

          k = 0.2828 0.0000 0.0000 (  5914 PWs)   bands (ev):

   -13.8797 -13.8797 -13.8683 -13.7854 -13.7548 -13.6317 -13.5709 -13.5254
   -13.5254 -13.5225  -1.9798   4.2768   6.6249   6.6249   9.0204   9.6120
     9.6177   9.7363

     occupation numbers 
     1.0000   1.0000   1.0000   1.0000   1.0000   1.0000   1.0000   1.0000
     1.0000   1.0000   1.0000   1.0000   1.0000   1.0000   0.0000   0.0000
     0.0000   0.0000

          k = 0.3300 0.0471-0.0471 (  5929 PWs)   bands (ev):

   -13.8881 -13.8847 -13.8609 -13.7758 -13.7404 -13.6475 -13.5806 -13.5346
   -13.5180 -13.5110  -1.7827   3.7267   6.3390   6.4126   9.0225   9.6139
     9.6178   9.7970

     occupation numbers 
     1.0000   1.0000   1.0000   1.0000   1.0000   1.0000   1.0000   1.0000
     1.0000   1.0000   1.0000   1.0000   1.0000   1.0000   0.0000   0.0000
     0.0000   0.0000

          k = 0.3771 0.0943-0.0943 (  5925 PWs)   bands (ev):

   -13.8982 -13.8898 -13.8482 -13.7651 -13.7286 -13.6591 -13.5920 -13.5493
   -13.5103 -13.4988  -1.5183   3.0901   5.9823   6.2592   9.1477   9.6155
     9.6182   9.9515

     occupation numbers 
     1.0000   1.0000   1.0000   1.0000   1.0000   1.0000   1.0000   1.0000
     1.0000   1.0000   1.0000   1.0000   1.0000   1.0000   0.0000   0.0000
     0.0000   0.0000

          k = 0.4243 0.1414-0.1414 (  5896 PWs)   bands (ev):

   -13.9070 -13.8944 -13.8336 -13.7542 -13.7218 -13.6646 -13.6037 -13.5656
   -13.5035 -13.4886  -1.2045   2.4562   5.6359   6.1754   9.1360   9.6162
     9.6186  10.3937

     occupation numbers 
     1.0000   1.0000   1.0000   1.0000   1.0000   1.0000   1.0000   1.0000
     1.0000   1.0000   1.0000   1.0000   1.0000   1.0000   0.0000   0.0000
     0.0000   0.0000

          k = 0.4714 0.1886-0.1886 (  5910 PWs)   bands (ev):

   -13.9136 -13.8981 -13.8197 -13.7442 -13.7218 -13.6625 -13.6151 -13.5812
   -13.4979 -13.4813  -0.8837   1.9073   5.3501   6.1655   9.0788   9.6164
     9.6187  10.8455

     occupation numbers 
     1.0000   1.0000   1.0000   1.0000   1.0000   1.0000   1.0000   1.0000
     1.0000   1.0000   1.0000   1.0000   1.0000   1.0000   0.0000   0.0000
     0.0000   0.0000

          k =-0.1886-0.4714 0.4714 (  5913 PWs)   bands (ev):

   -13.9173 -13.9008 -13.8092 -13.7355 -13.7281 -13.6534 -13.6255 -13.5935
   -13.4939 -13.4775  -0.6561   1.5647   5.1483   6.2297   9.0490   9.6164
     9.6187  11.0756

     occupation numbers 
     1.0000   1.0000   1.0000   1.0000   1.0000   1.0000   1.0000   1.0000
     1.0000   1.0000   1.0000   1.0000   1.0000   1.0000   0.0000   0.0000
     0.0000   0.0000

          k =-0.1414-0.4243 0.4243 (  5907 PWs)   bands (ev):

   -13.9175 -13.9024 -13.8042 -13.7392 -13.7298 -13.6384 -13.6333 -13.6008
   -13.4915 -13.4776  -0.6672   1.5817   5.0445   6.3638   9.0612   9.6165
     9.6188  11.1928

     occupation numbers 
     1.0000   1.0000   1.0000   1.0000   1.0000   1.0000   1.0000   1.0000
     1.0000   1.0000   1.0000   1.0000   1.0000   1.0000   0.0000   0.0000
     0.0000   0.0000

          k =-0.0943-0.3771 0.3771 (  5913 PWs)   bands (ev):

   -13.9144 -13.9025 -13.8060 -13.7522 -13.7294 -13.6360 -13.6192 -13.6031
   -13.4910 -13.4819  -0.9069   1.9429   5.0542   6.5586   9.1058   9.6165
     9.6189  11.3068

     occupation numbers 
     1.0000   1.0000   1.0000   1.0000   1.0000   1.0000   1.0000   1.0000
     1.0000   1.0000   1.0000   1.0000   1.0000   1.0000   0.0000   0.0000
     0.0000   0.0000

          k =-0.0471-0.3300 0.3300 (  5918 PWs)   bands (ev):

   -13.9080 -13.9008 -13.8149 -13.7635 -13.7355 -13.6322 -13.6028 -13.5971
   -13.4926 -13.4901  -1.2284   2.4809   5.1998   6.7975   9.1492   9.6165
     9.6191  11.3722

     occupation numbers 
     1.0000   1.0000   1.0000   1.0000   1.0000   1.0000   1.0000   1.0000
     1.0000   1.0000   1.0000   1.0000   1.0000   1.0000   0.0000   0.0000
     0.0000   0.0000

          k = 0.0000-0.2828 0.2828 (  5943 PWs)   bands (ev):

   -13.8991 -13.8974 -13.8283 -13.7723 -13.7470 -13.6227 -13.5980 -13.5773
   -13.5014 -13.4963  -1.5385   3.0636   5.5133   7.0506   9.1138   9.6165
     9.6191  11.0150

     occupation numbers 
     1.0000   1.0000   1.0000   1.0000   1.0000   1.0000   1.0000   1.0000
     1.0000   1.0000   1.0000   1.0000   1.0000   1.0000   0.0000   0.0000
     0.0000   0.0000

          k = 0.3771 0.0000 0.0000 (  5934 PWs)   bands (ev):

   -13.8888 -13.8888 -13.8616 -13.7665 -13.7234 -13.6673 -13.5891 -13.5298
   -13.5123 -13.5123  -1.6082   3.3518   6.1915   6.1915   8.7303   9.6139
     9.6178   9.7685

     occupation numbers 
     1.0000   1.0000   1.0000   1.0000   1.0000   1.0000   1.0000   1.0000
     1.0000   1.0000   1.0000   1.0000   1.0000   1.0000   0.0000   0.0000
     0.0000   0.0000

          k = 0.4243 0.0471-0.0471 (  5914 PWs)   bands (ev):

   -13.8963 -13.8933 -13.8516 -13.7554 -13.7084 -13.6834 -13.6002 -13.5421
   -13.5056 -13.5016  -1.3634   2.8496   5.9181   6.0280   8.7775   9.6120
     9.6177   9.6989

     occupation numbers 
     1.0000   1.0000   1.0000   1.0000   1.0000   1.0000   1.0000   1.0000
     1.0000   1.0000   1.0000   1.0000   1.0000   1.0000   0.0000   0.0000
     0.0000   0.0000

          k = 0.4714 0.0943-0.0943 (  5915 PWs)   bands (ev):

   -13.9061 -13.8975 -13.8355 -13.7437 -13.6995 -13.6920 -13.6126 -13.5603
   -13.4994 -13.4896  -1.0609   2.3082   5.5439   5.9344   8.9392   9.6154
     9.6181   9.8852

     occupation numbers 
     1.0000   1.0000   1.0000   1.0000   1.0000   1.0000   1.0000   1.0000
     1.0000   1.0000   1.0000   1.0000   1.0000   1.0000   0.0000   0.0000
     0.0000   0.0000

          k = 0.5185 0.1414-0.1414 (  5913 PWs)   bands (ev):

   -13.9149 -13.9009 -13.8180 -13.7321 -13.7019 -13.6884 -13.6253 -13.5792
   -13.4942 -13.4795  -0.7312   1.7986   5.1792   5.9162   8.9840   9.6162
     9.6185  10.4635

     occupation numbers 
     1.0000   1.0000   1.0000   1.0000   1.0000   1.0000   1.0000   1.0000
     1.0000   1.0000   1.0000   1.0000   1.0000   1.0000   0.0000   0.0000
     0.0000   0.0000

          k =-0.1414-0.5185 0.5185 (  5908 PWs)   bands (ev):

   -13.9211 -13.9035 -13.8036 -13.7216 -13.7040 -13.6846 -13.6374 -13.5946
   -13.4904 -13.4728  -0.4532   1.4199   4.8926   5.9741   9.0036   9.6163
     9.6186  11.2088

     occupation numbers 
     1.0000   1.0000   1.0000   1.0000   1.0000   1.0000   1.0000   1.0000
     1.0000   1.0000   1.0000   1.0000   1.0000   1.0000   0.0000   0.0000
     0.0000   0.0000

          k =-0.0943-0.4714 0.4714 (  5903 PWs)   bands (ev):

   -13.9237 -13.9050 -13.7956 -13.7143 -13.7142 -13.6720 -13.6469 -13.6033
   -13.4882 -13.4702  -0.3892   1.3400   4.7213   6.1046   9.0566   9.6164
     9.6187  11.7492

     occupation numbers 
     1.0000   1.0000   1.0000   1.0000   1.0000   1.0000   1.0000   1.0000
     1.0000   1.0000   1.0000   1.0000   1.0000   1.0000   0.0000   0.0000
     0.0000   0.0000

          k =-0.0471-0.4243 0.4243 (  5905 PWs)   bands (ev):

   -13.9223 -13.9052 -13.7947 -13.7325 -13.7137 -13.6500 -13.6497 -13.6059
   -13.4877 -13.4724  -0.5947   1.6056   4.6943   6.2987   9.1397   9.6165
     9.6188  11.9237

     occupation numbers 
     1.0000   1.0000   1.0000   1.0000   1.0000   1.0000   1.0000   1.0000
     1.0000   1.0000   1.0000   1.0000   1.0000   1.0000   0.0000   0.0000
     0.0000   0.0000

          k =-0.0000-0.3771 0.3771 (  5913 PWs)   bands (ev):

   -13.9168 -13.9039 -13.8012 -13.7507 -13.7220 -13.6438 -13.6242 -13.6047
   -13.4892 -13.4792  -0.9120   2.0345   4.8436   6.5397   9.2072   9.6166
     9.6192  11.8426

     occupation numbers 
     1.0000   1.0000   1.0000   1.0000   1.0000   1.0000   1.0000   1.0000
     1.0000   1.0000   1.0000   1.0000   1.0000   1.0000   0.0000   0.0000
     0.0000   0.0000

          k = 0.4714 0.0000 0.0000 (  5926 PWs)   bands (ev):

   -13.8971 -13.8971 -13.8486 -13.7438 -13.7041 -13.6898 -13.6112 -13.5444
   -13.5002 -13.5002  -1.1371   2.4573   5.8514   5.8514   8.5486   9.4445
     9.6170   9.6198

     occupation numbers 
     1.0000   1.0000   1.0000   1.0000   1.0000   1.0000   1.0000   1.0000
     1.0000   1.0000   1.0000   1.0000   1.0000   1.0000   0.0000   0.0000
     0.0000   0.0000

          k = 0.5185 0.0471-0.0471 (  5906 PWs)   bands (ev):

   -13.9034 -13.9005 -13.8357 -13.7313 -13.7195 -13.6750 -13.6237 -13.5587
   -13.4950 -13.4919  -0.8483   1.9999   5.6085   5.7433   8.6417   9.3593
     9.6168   9.6192

     occupation numbers 
     1.0000   1.0000   1.0000   1.0000   1.0000   1.0000   1.0000   1.0000
     1.0000   1.0000   1.0000   1.0000   1.0000   1.0000   0.0000   0.0000
     0.0000   0.0000

          k = 0.5657 0.0943-0.0943 (  5907 PWs)   bands (ev):

   -13.9122 -13.9034 -13.8171 -13.7279 -13.7187 -13.6661 -13.6370 -13.5786
   -13.4907 -13.4817  -0.5175   1.5433   5.2444   5.7109   8.7932   9.6118
     9.6177   9.6717

     occupation numbers 
     1.0000   1.0000   1.0000   1.0000   1.0000   1.0000   1.0000   1.0000
     1.0000   1.0000   1.0000   1.0000   1.0000   1.0000   0.0000   0.0000
     0.0000   0.0000

          k =-0.0943-0.5657 0.5657 (  5899 PWs)   bands (ev):

   -13.9201 -13.9055 -13.7998 -13.7256 -13.7069 -13.6672 -13.6502 -13.5966
   -13.4877 -13.4731  -0.2034   1.1623   4.8944   5.7559   8.8522   9.6161
     9.6184  10.3773

     occupation numbers 
     1.0000   1.0000   1.0000   1.0000   1.0000   1.0000   1.0000   1.0000
     1.0000   1.0000   1.0000   1.0000   1.0000   1.0000   0.0000   0.0000
     0.0000   0.0000

          k =-0.0471-0.5185 0.5185 (  5901 PWs)   bands (ev):

   -13.9251 -13.9066 -13.7908 -13.7091 -13.6985 -13.6821 -13.6605 -13.6058
   -13.4861 -13.4681  -0.0821   1.0301   4.6489   5.8755   8.9273   9.6163
     9.6185  11.2738

     occupation numbers 
     1.0000   1.0000   1.0000   1.0000   1.0000   1.0000   1.0000   1.0000
     1.0000   1.0000   1.0000   1.0000   1.0000   1.0000   0.0000   0.0000
     0.0000   0.0000

          k =-0.0000-0.4714 0.4714 (  5926 PWs)   bands (ev):

   -13.9260 -13.9066 -13.7899 -13.7070 -13.7011 -13.6813 -13.6601 -13.6074
   -13.4861 -13.4677  -0.2785   1.2534   4.5669   6.0617   9.0377   9.6164
     9.6187  12.1681

     occupation numbers 
     1.0000   1.0000   1.0000   1.0000   1.0000   1.0000   1.0000   1.0000
     1.0000   1.0000   1.0000   1.0000   1.0000   1.0000   0.0000   0.0000
     0.0000   0.0000

          k = 0.5657 0.0000 0.0000 (  5882 PWs)   bands (ev):

   -13.9032 -13.9032 -13.8292 -13.7401 -13.7182 -13.6557 -13.6363 -13.5655
   -13.4911 -13.4911  -0.5720   1.6058   5.6187   5.6187   8.4893   9.0647
     9.6165   9.6187

     occupation numbers 
     1.0000   1.0000   1.0000   1.0000   1.0000   1.0000   1.0000   1.0000
     1.0000   1.0000   1.0000   1.0000   1.0000   1.0000   0.0000   0.0000
     0.0000   0.0000

          k = 0.6128 0.0471-0.0471 (  5905 PWs)   bands (ev):

   -13.9080 -13.9053 -13.8137 -13.7541 -13.7049 -13.6498 -13.6418 -13.5818
   -13.4879 -13.4852  -0.2447   1.1922   5.4199   5.5690   8.6200   9.0411
     9.6165   9.6187

     occupation numbers 
     1.0000   1.0000   1.0000   1.0000   1.0000   1.0000   1.0000   1.0000
     1.0000   1.0000   1.0000   1.0000   1.0000   1.0000   0.0000   0.0000
     0.0000   0.0000

          k =-0.0471-0.6128 0.6128 (  5898 PWs)   bands (ev):

   -13.9155 -13.9066 -13.7953 -13.7575 -13.6920 -13.6635 -13.6376 -13.6007
   -13.4860 -13.4773   0.0932   0.8198   5.0932   5.5972   8.7241   9.5156
     9.6171   9.6202

     occupation numbers 
     1.0000   1.0000   1.0000   1.0000   1.0000   1.0000   1.0000   1.0000
     1.0000   1.0000   1.0000   1.0000   1.0000   1.0000   0.0000   0.0000
     0.0000   0.0000

          k = 0.0000-0.5657 0.5657 (  5898 PWs)   bands (ev):

   -13.9220 -13.9071 -13.7887 -13.7399 -13.6860 -13.6710 -13.6537 -13.6075
   -13.4853 -13.4708   0.1926   0.7302   4.7980   5.7017   8.8042   9.6161
     9.6184  10.3324

     occupation numbers 
     1.0000   1.0000   1.0000   1.0000   1.0000   1.0000   1.0000   1.0000
     1.0000   1.0000   1.0000   1.0000   1.0000   1.0000   0.0000   0.0000
     0.0000   0.0000

          k = 0.6600 0.0000 0.0000 (  5910 PWs)   bands (ev):

   -13.9065 -13.9065 -13.8040 -13.7739 -13.6910 -13.6632 -13.6226 -13.5921
   -13.4861 -13.4861   0.0798   0.8093   5.5007   5.5007   8.5582   8.7543
     9.6165   9.6186

     occupation numbers 
     1.0000   1.0000   1.0000   1.0000   1.0000   1.0000   1.0000   1.0000
     1.0000   1.0000   1.0000   1.0000   1.0000   1.0000   0.0000   0.0000
     0.0000   0.0000

          k = 0.0000-0.6600 0.6600 (  5914 PWs)   bands (ev):

   -13.9097 -13.9070 -13.7894 -13.7828 -13.6782 -13.6763 -13.6133 -13.6070
   -13.4855 -13.4828   0.4106   0.4683   5.3565   5.5103   8.6598   8.8809
     9.6165   9.6186

     occupation numbers 
     1.0000   1.0000   1.0000   1.0000   1.0000   1.0000   1.0000   1.0000
     1.0000   1.0000   1.0000   1.0000   1.0000   1.0000   0.0000   0.0000
     0.0000   0.0000

          k = 0.1886 0.0943-0.0000 (  5933 PWs)   bands (ev):

   -13.8789 -13.8737 -13.8606 -13.7957 -13.7812 -13.5971 -13.5671 -13.5412
   -13.5341 -13.5168  -2.1955   4.9256   6.8910   7.3422   8.9527   9.6157
     9.6188   9.7142

     occupation numbers 
     1.0000   1.0000   1.0000   1.0000   1.0000   1.0000   1.0000   1.0000
     1.0000   1.0000   1.0000   1.0000   1.0000   1.0000   0.0000   0.0000
     0.0000   0.0000

          k = 0.2357 0.1414-0.0471 (  5929 PWs)   bands (ev):

   -13.8865 -13.8809 -13.8537 -13.7865 -13.7686 -13.6094 -13.5772 -13.5492
   -13.5233 -13.5088  -1.9995   4.1930   6.4931   7.1802   8.9957   9.6163
     9.6189   9.9605

     occupation numbers 
     1.0000   1.0000   1.0000   1.0000   1.0000   1.0000   1.0000   1.0000
     1.0000   1.0000   1.0000   1.0000   1.0000   1.0000   0.0000   0.0000
     0.0000   0.0000

          k = 0.2828 0.1886-0.0943 (  5931 PWs)   bands (ev):

   -13.8935 -13.8877 -13.8446 -13.7769 -13.7576 -13.6187 -13.5864 -13.5609
   -13.5133 -13.5020  -1.7362   3.4158   6.2001   6.9684   8.8910   9.6165
     9.6189  10.3279

     occupation numbers 
     1.0000   1.0000   1.0000   1.0000   1.0000   1.0000   1.0000   1.0000
     1.0000   1.0000   1.0000   1.0000   1.0000   1.0000   0.0000   0.0000
     0.0000   0.0000

          k = 0.3300 0.2357-0.1414 (  5920 PWs)   bands (ev):

   -13.8994 -13.8927 -13.8352 -13.7680 -13.7500 -13.6237 -13.5944 -13.5735
   -13.5057 -13.4965  -1.4243   2.6811   5.9960   6.7706   8.7647   9.6164
     9.6187  10.6070

     occupation numbers 
     1.0000   1.0000   1.0000   1.0000   1.0000   1.0000   1.0000   1.0000
     1.0000   1.0000   1.0000   1.0000   1.0000   1.0000   0.0000   0.0000
     0.0000   0.0000

          k = 0.3771 0.2828-0.1886 (  5920 PWs)   bands (ev):

   -13.9036 -13.8958 -13.8274 -13.7604 -13.7471 -13.6235 -13.6017 -13.5843
   -13.5008 -13.4925  -1.1069   2.0677   5.8677   6.6225   8.6659   9.6164
     9.6187  10.7375

     occupation numbers 
     1.0000   1.0000   1.0000   1.0000   1.0000   1.0000   1.0000   1.0000
     1.0000   1.0000   1.0000   1.0000   1.0000   1.0000   0.0000   0.0000
     0.0000   0.0000

          k =-0.2828-0.3771 0.4714 (  5912 PWs)   bands (ev):

   -13.9058 -13.8972 -13.8229 -13.7542 -13.7482 -13.6191 -13.6095 -13.5902
   -13.4985 -13.4903  -0.8808   1.6899   5.8062   6.5437   8.6132   9.6164
     9.6187  10.7771

     occupation numbers 
     1.0000   1.0000   1.0000   1.0000   1.0000   1.0000   1.0000   1.0000
     1.0000   1.0000   1.0000   1.0000   1.0000   1.0000   0.0000   0.0000
     0.0000   0.0000

          k = 0.2828 0.0943 0.0000 (  5923 PWs)   bands (ev):

   -13.8858 -13.8824 -13.8589 -13.7834 -13.7557 -13.6288 -13.5747 -13.5406
   -13.5221 -13.5109  -1.9300   4.0791   6.4042   6.7828   9.3505   9.5619
     9.6177   9.6287

     occupation numbers 
     1.0000   1.0000   1.0000   1.0000   1.0000   1.0000   1.0000   1.0000
     1.0000   1.0000   1.0000   1.0000   1.0000   1.0000   0.0000   0.0000
     0.0000   0.0000

          k = 0.3300 0.1414-0.0471 (  5929 PWs)   bands (ev):

   -13.8942 -13.8890 -13.8481 -13.7735 -13.7432 -13.6410 -13.5852 -13.5523
   -13.5123 -13.5021  -1.6877   3.4297   6.0223   6.6168   9.3957   9.6153
     9.6189   9.8160

     occupation numbers 
     1.0000   1.0000   1.0000   1.0000   1.0000   1.0000   1.0000   1.0000
     1.0000   1.0000   1.0000   1.0000   1.0000   1.0000   0.0000   0.0000
     0.0000   0.0000

          k = 0.3771 0.1886-0.0943 (  5916 PWs)   bands (ev):

   -13.9027 -13.8940 -13.8352 -13.7634 -13.7341 -13.6485 -13.5958 -13.5670
   -13.5045 -13.4933  -1.3884   2.7585   5.7233   6.4435   9.2964   9.6164
     9.6191  10.2609

     occupation numbers 
     1.0000   1.0000   1.0000   1.0000   1.0000   1.0000   1.0000   1.0000
     1.0000   1.0000   1.0000   1.0000   1.0000   1.0000   0.0000   0.0000
     0.0000   0.0000

          k = 0.4243 0.2357-0.1414 (  5912 PWs)   bands (ev):

   -13.9095 -13.8976 -13.8227 -13.7539 -13.7305 -13.6497 -13.6064 -13.5815
   -13.4989 -13.4860  -1.0637   2.1476   5.4995   6.3228   9.1956   9.6165
     9.6190  10.6009

     occupation numbers 
     1.0000   1.0000   1.0000   1.0000   1.0000   1.0000   1.0000   1.0000
     1.0000   1.0000   1.0000   1.0000   1.0000   1.0000   0.0000   0.0000
     0.0000   0.0000

          k =-0.2357-0.4243 0.5185 (  5908 PWs)   bands (ev):

   -13.9135 -13.9001 -13.8131 -13.7457 -13.7324 -13.6445 -13.6167 -13.5924
   -13.4952 -13.4816  -0.7888   1.7018   5.3460   6.2809   9.1312   9.6165
     9.6190  10.7391

     occupation numbers 
     1.0000   1.0000   1.0000   1.0000   1.0000   1.0000   1.0000   1.0000
     1.0000   1.0000   1.0000   1.0000   1.0000   1.0000   0.0000   0.0000
     0.0000   0.0000

          k =-0.1886-0.3771 0.4714 (  5906 PWs)   bands (ev):

   -13.9146 -13.9014 -13.8088 -13.7436 -13.7348 -13.6367 -13.6229 -13.5983
   -13.4932 -13.4807  -0.7036   1.5749   5.2659   6.3233   9.1135   9.6165
     9.6190  10.7896

     occupation numbers 
     1.0000   1.0000   1.0000   1.0000   1.0000   1.0000   1.0000   1.0000
     1.0000   1.0000   1.0000   1.0000   1.0000   1.0000   0.0000   0.0000
     0.0000   0.0000

          k =-0.1414-0.3300 0.4243 (  5908 PWs)   bands (ev):

   -13.9124 -13.9014 -13.8108 -13.7515 -13.7331 -13.6375 -13.6134 -13.5991
   -13.4931 -13.4835  -0.8744   1.8351   5.2685   6.4434   9.1409   9.6166
     9.6191  10.8112

     occupation numbers 
     1.0000   1.0000   1.0000   1.0000   1.0000   1.0000   1.0000   1.0000
     1.0000   1.0000   1.0000   1.0000   1.0000   1.0000   0.0000   0.0000
     0.0000   0.0000

          k =-0.0943-0.2828 0.3771 (  5923 PWs)   bands (ev):

   -13.9072 -13.8999 -13.8189 -13.7609 -13.7354 -13.6376 -13.6008 -13.5917
   -13.4952 -13.4895  -1.1800   2.3514   5.3689   6.6263   9.2013   9.6166
     9.6193  10.7455

     occupation numbers 
     1.0000   1.0000   1.0000   1.0000   1.0000   1.0000   1.0000   1.0000
     1.0000   1.0000   1.0000   1.0000   1.0000   1.0000   0.0000   0.0000
     0.0000   0.0000

          k =-0.0471-0.2357 0.3300 (  5930 PWs)   bands (ev):

   -13.8996 -13.8966 -13.8309 -13.7699 -13.7434 -13.6323 -13.5939 -13.5749
   -13.5019 -13.4961  -1.5007   2.9791   5.5890   6.8460   9.2616   9.6166
     9.6195  10.4747

     occupation numbers 
     1.0000   1.0000   1.0000   1.0000   1.0000   1.0000   1.0000   1.0000
     1.0000   1.0000   1.0000   1.0000   1.0000   1.0000   0.0000   0.0000
     0.0000   0.0000

          k = 0.0000-0.1886 0.2828 (  5931 PWs)   bands (ev):

   -13.8925 -13.8896 -13.8436 -13.7785 -13.7553 -13.6223 -13.5860 -13.5589
   -13.5132 -13.5020  -1.7817   3.6191   5.9578   7.0565   9.2322   9.6165
     9.6194  10.1223

     occupation numbers 
     1.0000   1.0000   1.0000   1.0000   1.0000   1.0000   1.0000   1.0000
     1.0000   1.0000   1.0000   1.0000   1.0000   1.0000   0.0000   0.0000
     0.0000   0.0000

          k = 0.3771 0.0943 0.0000 (  5922 PWs)   bands (ev):

   -13.8931 -13.8917 -13.8528 -13.7658 -13.7257 -13.6634 -13.5907 -13.5431
   -13.5090 -13.5044  -1.5624   3.2257   5.9865   6.2782   9.0552   9.6143
     9.6179   9.8059

     occupation numbers 
     1.0000   1.0000   1.0000   1.0000   1.0000   1.0000   1.0000   1.0000
     1.0000   1.0000   1.0000   1.0000   1.0000   1.0000   0.0000   0.0000
     0.0000   0.0000

          k = 0.4243 0.1414-0.0471 (  5916 PWs)   bands (ev):

   -13.9024 -13.8968 -13.8383 -13.7548 -13.7140 -13.6748 -13.6022 -13.5592
   -13.5011 -13.4939  -1.2790   2.6612   5.6305   6.1243   9.2396   9.6155
     9.6184   9.9463

     occupation numbers 
     1.0000   1.0000   1.0000   1.0000   1.0000   1.0000   1.0000   1.0000
     1.0000   1.0000   1.0000   1.0000   1.0000   1.0000   0.0000   0.0000
     0.0000   0.0000

          k = 0.4714 0.1886-0.0943 (  5913 PWs)   bands (ev):

   -13.9114 -13.9005 -13.8219 -13.7438 -13.7083 -13.6792 -13.6144 -13.5770
   -13.4955 -13.4837  -0.9551   2.1043   5.3115   6.0157   9.2762   9.6163
     9.6188  10.4435

     occupation numbers 
     1.0000   1.0000   1.0000   1.0000   1.0000   1.0000   1.0000   1.0000
     1.0000   1.0000   1.0000   1.0000   1.0000   1.0000   0.0000   0.0000
     0.0000   0.0000

          k =-0.1886-0.4714 0.5657 (  5911 PWs)   bands (ev):

   -13.9179 -13.9032 -13.8074 -13.7338 -13.7098 -13.6755 -13.6265 -13.5923
   -13.4915 -13.4764  -0.6465   1.6415   5.0568   5.9899   9.2669   9.6165
     9.6189  10.9788

     occupation numbers 
     1.0000   1.0000   1.0000   1.0000   1.0000   1.0000   1.0000   1.0000
     1.0000   1.0000   1.0000   1.0000   1.0000   1.0000   0.0000   0.0000
     0.0000   0.0000

          k =-0.1414-0.4243 0.5185 (  5904 PWs)   bands (ev):

   -13.9211 -13.9049 -13.7983 -13.7276 -13.7154 -13.6659 -13.6366 -13.6020
   -13.4889 -13.4731  -0.4832   1.4190   4.8909   6.0505   9.2874   9.6166
     9.6191  11.1761

     occupation numbers 
     1.0000   1.0000   1.0000   1.0000   1.0000   1.0000   1.0000   1.0000
     1.0000   1.0000   1.0000   1.0000   1.0000   1.0000   0.0000   0.0000
     0.0000   0.0000

          k =-0.0943-0.3771 0.4714 (  5904 PWs)   bands (ev):

   -13.9205 -13.9054 -13.7964 -13.7353 -13.7167 -13.6560 -13.6362 -13.6055
   -13.4880 -13.4742  -0.5923   1.5670   4.8353   6.1892   9.3440   9.6167
     9.6194  11.2008

     occupation numbers 
     1.0000   1.0000   1.0000   1.0000   1.0000   1.0000   1.0000   1.0000
     1.0000   1.0000   1.0000   1.0000   1.0000   1.0000   0.0000   0.0000
     0.0000   0.0000

          k =-0.0471-0.3300 0.4243 (  5907 PWs)   bands (ev):

   -13.9161 -13.9045 -13.8023 -13.7493 -13.7201 -13.6518 -13.6185 -13.6042
   -13.4889 -13.4798  -0.8816   1.9800   4.9141   6.3901   9.4127   9.6168
     9.6202  11.1430

     occupation numbers 
     1.0000   1.0000   1.0000   1.0000   1.0000   1.0000   1.0000   1.0000
     1.0000   1.0000   1.0000   1.0000   1.0000   1.0000   0.0000   0.0000
     0.0000   0.0000

          k = 0.0000-0.2828 0.3771 (  5921 PWs)   bands (ev):

   -13.9084 -13.9019 -13.8151 -13.7611 -13.7298 -13.6439 -13.6006 -13.5952
   -13.4917 -13.4894  -1.2068   2.4849   5.1569   6.6256   9.4279   9.6168
     9.6206  10.8294

     occupation numbers 
     1.0000   1.0000   1.0000   1.0000   1.0000   1.0000   1.0000   1.0000
     1.0000   1.0000   1.0000   1.0000   1.0000   1.0000   0.0000   0.0000
     0.0000   0.0000

          k = 0.4714 0.0943-0.0000 (  5912 PWs)   bands (ev):

   -13.9003 -13.9000 -13.8403 -13.7437 -13.6992 -13.6934 -13.6119 -13.5544
   -13.4970 -13.4959  -1.0975   2.3856   5.6676   5.8722   8.8612   9.5886
     9.6175   9.6305

     occupation numbers 
     1.0000   1.0000   1.0000   1.0000   1.0000   1.0000   1.0000   1.0000
     1.0000   1.0000   1.0000   1.0000   1.0000   1.0000   0.0000   0.0000
     0.0000   0.0000

          k = 0.5185 0.1414-0.0471 (  5916 PWs)   bands (ev):

   -13.9095 -13.9034 -13.8227 -13.7317 -13.7095 -13.6827 -13.6248 -13.5733
   -13.4917 -13.4853  -0.7804   1.9004   5.3387   5.7546   9.0723   9.6150
     9.6181   9.7998

     occupation numbers 
     1.0000   1.0000   1.0000   1.0000   1.0000   1.0000   1.0000   1.0000
     1.0000   1.0000   1.0000   1.0000   1.0000   1.0000   0.0000   0.0000
     0.0000   0.0000

          k =-0.1414-0.5185 0.6128 (  5906 PWs)   bands (ev):

   -13.9179 -13.9059 -13.8045 -13.7201 -13.7119 -13.6789 -13.6380 -13.5923
   -13.4880 -13.4759  -0.4513   1.4587   5.0053   5.7289   9.1415   9.6162
     9.6186  10.4342

     occupation numbers 
     1.0000   1.0000   1.0000   1.0000   1.0000   1.0000   1.0000   1.0000
     1.0000   1.0000   1.0000   1.0000   1.0000   1.0000   0.0000   0.0000
     0.0000   0.0000

          k =-0.0943-0.4714 0.5657 (  5903 PWs)   bands (ev):

   -13.9235 -13.9075 -13.7917 -13.7116 -13.7029 -13.6850 -13.6500 -13.6051
   -13.4857 -13.4700  -0.2223   1.1816   4.7500   5.7929   9.1958   9.6164
     9.6188  11.2565

     occupation numbers 
     1.0000   1.0000   1.0000   1.0000   1.0000   1.0000   1.0000   1.0000
     1.0000   1.0000   1.0000   1.0000   1.0000   1.0000   0.0000   0.0000
     0.0000   0.0000

          k =-0.0471-0.4243 0.5185 (  5903 PWs)   bands (ev):

   -13.9251 -13.9079 -13.7877 -13.7129 -13.6986 -13.6828 -13.6552 -13.6094
   -13.4850 -13.4685  -0.2778   1.2495   4.6248   5.9364   9.2849   9.6165
     9.6190  11.8405

     occupation numbers 
     1.0000   1.0000   1.0000   1.0000   1.0000   1.0000   1.0000   1.0000
     1.0000   1.0000   1.0000   1.0000   1.0000   1.0000   0.0000   0.0000
     0.0000   0.0000

          k =-0.0000-0.3771 0.4714 (  5910 PWs)   bands (ev):

   -13.9226 -13.9070 -13.7914 -13.7314 -13.7066 -13.6658 -13.6431 -13.6082
   -13.4860 -13.4719  -0.5562   1.5829   4.6688   6.1442   9.3864   9.6167
     9.6196  11.7449

     occupation numbers 
     1.0000   1.0000   1.0000   1.0000   1.0000   1.0000   1.0000   1.0000
     1.0000   1.0000   1.0000   1.0000   1.0000   1.0000   0.0000   0.0000
     0.0000   0.0000

          k = 0.5657 0.0943 0.0000 (  5903 PWs)   bands (ev):

   -13.9061 -13.9060 -13.8215 -13.7344 -13.7184 -13.6605 -13.6367 -13.5737
   -13.4881 -13.4880  -0.5416   1.5741   5.4616   5.5824   8.7842   9.2745
     9.6167   9.6190

     occupation numbers 
     1.0000   1.0000   1.0000   1.0000   1.0000   1.0000   1.0000   1.0000
     1.0000   1.0000   1.0000   1.0000   1.0000   1.0000   0.0000   0.0000
     0.0000   0.0000

          k =-0.0943-0.5657 0.6600 (  5905 PWs)   bands (ev):

   -13.9141 -13.9080 -13.8018 -13.7420 -13.7056 -13.6523 -13.6505 -13.5940
   -13.4852 -13.4791  -0.2025   1.1624   5.1587   5.5282   8.9820   9.5898
     9.6176   9.6274

     occupation numbers 
     1.0000   1.0000   1.0000   1.0000   1.0000   1.0000   1.0000   1.0000
     1.0000   1.0000   1.0000   1.0000   1.0000   1.0000   0.0000   0.0000
     0.0000   0.0000

          k =-0.0471-0.5185 0.6128 (  5906 PWs)   bands (ev):

   -13.9213 -13.9091 -13.7867 -13.7361 -13.6943 -13.6638 -13.6566 -13.6090
   -13.4836 -13.4716   0.0757   0.8619   4.8420   5.5870   9.0574   9.6162
     9.6185  10.3625

     occupation numbers 
     1.0000   1.0000   1.0000   1.0000   1.0000   1.0000   1.0000   1.0000
     1.0000   1.0000   1.0000   1.0000   1.0000   1.0000   0.0000   0.0000
     0.0000   0.0000

          k = 0.0000-0.4714 0.5657 (  5894 PWs)   bands (ev):

   -13.9254 -13.9091 -13.7838 -13.7131 -13.6942 -13.6767 -13.6670 -13.6119
   -13.4835 -13.4677   0.0181   0.9327   4.6406   5.7279   9.1596   9.6164
     9.6187  11.2863

     occupation numbers 
     1.0000   1.0000   1.0000   1.0000   1.0000   1.0000   1.0000   1.0000
     1.0000   1.0000   1.0000   1.0000   1.0000   1.0000   0.0000   0.0000
     0.0000   0.0000

          k =-0.0471-0.6128 0.7071 (  5907 PWs)   bands (ev):

   -13.9093 -13.9092 -13.7969 -13.7675 -13.6913 -13.6636 -13.6284 -13.5990
   -13.4835 -13.4834   0.0966   0.8062   5.3765   5.4163   8.8307   8.9994
     9.6166   9.6187

     occupation numbers 
     1.0000   1.0000   1.0000   1.0000   1.0000   1.0000   1.0000   1.0000
     1.0000   1.0000   1.0000   1.0000   1.0000   1.0000   0.0000   0.0000
     0.0000   0.0000

          k = 0.0000-0.5657 0.6600 (  5899 PWs)   bands (ev):

   -13.9158 -13.9096 -13.7827 -13.7651 -13.6806 -13.6755 -13.6298 -13.6131
   -13.4829 -13.4769   0.3646   0.5412   5.0978   5.4523   8.9569   9.5150
     9.6172   9.6202

     occupation numbers 
     1.0000   1.0000   1.0000   1.0000   1.0000   1.0000   1.0000   1.0000
     1.0000   1.0000   1.0000   1.0000   1.0000   1.0000   0.0000   0.0000
     0.0000   0.0000

          k = 0.3771 0.1886-0.0000 (  5927 PWs)   bands (ev):

   -13.8992 -13.8987 -13.8345 -13.7641 -13.7300 -13.6537 -13.5950 -13.5670
   -13.5003 -13.4962  -1.4268   2.9040   5.5682   6.4729   9.6129   9.6168
     9.7588   9.8324

     occupation numbers 
     1.0000   1.0000   1.0000   1.0000   1.0000   1.0000   1.0000   1.0000
     1.0000   1.0000   1.0000   1.0000   1.0000   1.0000   0.0000   0.0000
     0.0000   0.0000

          k = 0.4243 0.2357-0.0471 (  5915 PWs)   bands (ev):

   -13.9086 -13.9024 -13.8189 -13.7541 -13.7199 -13.6621 -13.6057 -13.5844
   -13.4929 -13.4877  -1.1151   2.3476   5.2482   6.2792   9.6118   9.6172
     9.7113  10.3260

     occupation numbers 
     1.0000   1.0000   1.0000   1.0000   1.0000   1.0000   1.0000   1.0000
     1.0000   1.0000   1.0000   1.0000   1.0000   1.0000   0.0000   0.0000
     0.0000   0.0000

          k =-0.2357-0.4243 0.6128 (  5916 PWs)   bands (ev):

   -13.9157 -13.9047 -13.8053 -13.7438 -13.7155 -13.6641 -13.6187 -13.5981
   -13.4897 -13.4794  -0.7917   1.8366   5.0526   6.1141   9.6047   9.6172
     9.6573  10.6539

     occupation numbers 
     1.0000   1.0000   1.0000   1.0000   1.0000   1.0000   1.0000   1.0000
     1.0000   1.0000   1.0000   1.0000   1.0000   1.0000   0.0000   0.0000
     0.0000   0.0000

          k =-0.1886-0.3771 0.5657 (  5907 PWs)   bands (ev):

   -13.9194 -13.9058 -13.7975 -13.7352 -13.7165 -13.6611 -13.6310 -13.6044
   -13.4882 -13.4750  -0.5531   1.4966   4.9614   6.0218   9.5913   9.6171
     9.6369  10.7228

     occupation numbers 
     1.0000   1.0000   1.0000   1.0000   1.0000   1.0000   1.0000   1.0000
     1.0000   1.0000   1.0000   1.0000   1.0000   1.0000   0.0000   0.0000
     0.0000   0.0000

          k = 0.4714 0.1886-0.0000 (  5922 PWs)   bands (ev):

   -13.9074 -13.9051 -13.8215 -13.7438 -13.7013 -13.6870 -13.6141 -13.5768
   -13.4895 -13.4890  -0.9813   2.1877   5.2890   5.9422   9.6069   9.6160
     9.6361   9.9595

     occupation numbers 
     1.0000   1.0000   1.0000   1.0000   1.0000   1.0000   1.0000   1.0000
     1.0000   1.0000   1.0000   1.0000   1.0000   1.0000   0.0000   0.0000
     0.0000   0.0000

          k =-0.1886-0.4714 0.6600 (  5914 PWs)   bands (ev):

   -13.9156 -13.9082 -13.8034 -13.7326 -13.6969 -13.6899 -13.6275 -13.5953
   -13.4859 -13.4789  -0.6517   1.7194   5.0212   5.7749   9.6147   9.6174
     9.7725  10.4391

     occupation numbers 
     1.0000   1.0000   1.0000   1.0000   1.0000   1.0000   1.0000   1.0000
     1.0000   1.0000   1.0000   1.0000   1.0000   1.0000   0.0000   0.0000
     0.0000   0.0000

          k =-0.1414-0.4243 0.6128 (  5906 PWs)   bands (ev):

   -13.9214 -13.9099 -13.7892 -13.7228 -13.6977 -13.6868 -13.6411 -13.6085
   -13.4837 -13.4723  -0.3616   1.3458   4.8340   5.6954   9.6147   9.6176
     9.7992  10.9698

     occupation numbers 
     1.0000   1.0000   1.0000   1.0000   1.0000   1.0000   1.0000   1.0000
     1.0000   1.0000   1.0000   1.0000   1.0000   1.0000   0.0000   0.0000
     0.0000   0.0000

          k =-0.0943-0.3771 0.5657 (  5901 PWs)   bands (ev):

   -13.9235 -13.9104 -13.7839 -13.7202 -13.6970 -13.6842 -13.6477 -13.6132
   -13.4829 -13.4701  -0.2766   1.2432   4.7399   5.7252   9.6150   9.6177
     9.8537  11.0502

     occupation numbers 
     1.0000   1.0000   1.0000   1.0000   1.0000   1.0000   1.0000   1.0000
     1.0000   1.0000   1.0000   1.0000   1.0000   1.0000   0.0000   0.0000
     0.0000   0.0000

          k =-0.0471-0.3300 0.5185 (  5911 PWs)   bands (ev):

   -13.9215 -13.9096 -13.7885 -13.7295 -13.6995 -13.6798 -13.6384 -13.6104
   -13.4837 -13.4727  -0.4769   1.4899   4.7612   5.8543   9.6152   9.6178
     9.9257  10.9717

     occupation numbers 
     1.0000   1.0000   1.0000   1.0000   1.0000   1.0000   1.0000   1.0000
     1.0000   1.0000   1.0000   1.0000   1.0000   1.0000   0.0000   0.0000
     0.0000   0.0000

          k = 0.0000-0.2828 0.4714 (  5910 PWs)   bands (ev):

   -13.9158 -13.9073 -13.8015 -13.7428 -13.7070 -13.6733 -13.6200 -13.6012
   -13.4863 -13.4797  -0.7964   1.9052   4.9243   6.0554   9.6152   9.6177
     9.9528  10.6287

     occupation numbers 
     1.0000   1.0000   1.0000   1.0000   1.0000   1.0000   1.0000   1.0000
     1.0000   1.0000   1.0000   1.0000   1.0000   1.0000   0.0000   0.0000
     0.0000   0.0000

          k =-0.1414-0.5185 0.7071 (  5917 PWs)   bands (ev):

   -13.9130 -13.9108 -13.8032 -13.7201 -13.7194 -13.6715 -13.6384 -13.5931
   -13.4828 -13.4810  -0.4541   1.4798   5.1366   5.5267   9.5210   9.6154
     9.6198   9.8288

     occupation numbers 
     1.0000   1.0000   1.0000   1.0000   1.0000   1.0000   1.0000   1.0000
     1.0000   1.0000   1.0000   1.0000   1.0000   1.0000   0.0000   0.0000
     0.0000   0.0000

          k =-0.0943-0.4714 0.6600 (  5908 PWs)   bands (ev):

   -13.9198 -13.9129 -13.7837 -13.7240 -13.7074 -13.6666 -13.6527 -13.6119
   -13.4802 -13.4734  -0.1286   1.1024   4.9122   5.4187   9.6134   9.6172
     9.6994  10.4366

     occupation numbers 
     1.0000   1.0000   1.0000   1.0000   1.0000   1.0000   1.0000   1.0000
     1.0000   1.0000   1.0000   1.0000   1.0000   1.0000   0.0000   0.0000
     0.0000   0.0000

          k =-0.0471-0.4243 0.6128 (  5900 PWs)   bands (ev):

   -13.9242 -13.9133 -13.7740 -13.7157 -13.6996 -13.6743 -13.6625 -13.6203
   -13.4795 -13.4688   0.0306   0.9322   4.7225   5.4652   9.6148   9.6176
     9.7823  11.2816

     occupation numbers 
     1.0000   1.0000   1.0000   1.0000   1.0000   1.0000   1.0000   1.0000
     1.0000   1.0000   1.0000   1.0000   1.0000   1.0000   0.0000   0.0000
     0.0000   0.0000

          k = 0.0000-0.3771 0.5657 (  5903 PWs)   bands (ev):

   -13.9247 -13.9123 -13.7771 -13.7113 -13.6975 -13.6843 -13.6583 -13.6179
   -13.4806 -13.4687  -0.1571   1.1389   4.6561   5.6224   9.6153   9.6178
     9.8872  11.5774

     occupation numbers 
     1.0000   1.0000   1.0000   1.0000   1.0000   1.0000   1.0000   1.0000
     1.0000   1.0000   1.0000   1.0000   1.0000   1.0000   0.0000   0.0000
     0.0000   0.0000

          k =-0.0471-0.5185 0.7071 (  5904 PWs)   bands (ev):

   -13.9155 -13.9146 -13.7795 -13.7514 -13.6927 -13.6651 -13.6422 -13.6155
   -13.4782 -13.4773   0.1422   0.7925   5.1215   5.2508   9.5279   9.6088
     9.6201   9.6513

     occupation numbers 
     1.0000   1.0000   1.0000   1.0000   1.0000   1.0000   1.0000   1.0000
     1.0000   1.0000   1.0000   1.0000   1.0000   1.0000   0.0000   0.0000
     0.0000   0.0000

          k = 0.0000-0.4714 0.6600 (  5900 PWs)   bands (ev):

   -13.9211 -13.9148 -13.7678 -13.7432 -13.6850 -13.6756 -13.6488 -13.6261
   -13.4779 -13.4716   0.3199   0.6233   4.8899   5.2818   9.6117   9.6171
     9.6697  10.4052

     occupation numbers 
     1.0000   1.0000   1.0000   1.0000   1.0000   1.0000   1.0000   1.0000
     1.0000   1.0000   1.0000   1.0000   1.0000   1.0000   0.0000   0.0000
     0.0000   0.0000

          k =-0.1414-0.4243 0.7071 (  5901 PWs)   bands (ev):

   -13.9201 -13.9133 -13.7838 -13.7201 -13.7041 -13.6813 -13.6439 -13.6129
   -13.4799 -13.4736  -0.3205   1.3290   4.8357   5.5333   9.6158   9.6179
    10.3926  10.5099

     occupation numbers 
     1.0000   1.0000   1.0000   1.0000   1.0000   1.0000   1.0000   1.0000
     1.0000   1.0000   1.0000   1.0000   1.0000   1.0000   0.0000   0.0000
     0.0000   0.0000

          k =-0.0943-0.3771 0.6600 (  5908 PWs)   bands (ev):

   -13.9234 -13.9153 -13.7703 -13.7131 -13.7047 -13.6763 -13.6583 -13.6237
   -13.4777 -13.4697  -0.0430   1.0195   4.7528   5.3854   9.6158   9.6180
    10.4280  10.9940

     occupation numbers 
     1.0000   1.0000   1.0000   1.0000   1.0000   1.0000   1.0000   1.0000
     1.0000   1.0000   1.0000   1.0000   1.0000   1.0000   0.0000   0.0000
     0.0000   0.0000

          k =-0.0471-0.4243 0.7071 (  5926 PWs)   bands (ev):

   -13.9209 -13.9184 -13.7610 -13.7340 -13.6951 -13.6693 -13.6554 -13.6317
   -13.4744 -13.4719   0.2040   0.7590   4.9050   5.1395   9.6159   9.6180
    10.4764  10.4944

     occupation numbers 
     1.0000   1.0000   1.0000   1.0000   1.0000   1.0000   1.0000   1.0000
     1.0000   1.0000   1.0000   1.0000   1.0000   1.0000   0.0000   0.0000
     0.0000   0.0000

          k =-0.0000-0.3771 0.6600 (  5913 PWs)   bands (ev):

   -13.9231 -13.9184 -13.7557 -13.7285 -13.6927 -13.6750 -13.6590 -13.6356
   -13.4743 -13.4697   0.2667   0.7007   4.8182   5.1514   9.6159   9.6181
    10.5597  11.2418

     occupation numbers 
     1.0000   1.0000   1.0000   1.0000   1.0000   1.0000   1.0000   1.0000
     1.0000   1.0000   1.0000   1.0000   1.0000   1.0000   0.0000   0.0000
     0.0000   0.0000

     the Fermi energy is     7.7565 ev

!    total energy              =    -256.22152947 Ry
     Harris-Foulkes estimate   =    -256.22152904 Ry
     estimated scf accuracy    <       0.00000091 Ry

     The total energy is the sum of the following terms:

     one-electron contribution =    -134.54828356 Ry
     hartree contribution      =      78.61197547 Ry
     xc contribution           =     -31.49009509 Ry
     ewald contribution        =    -168.79512611 Ry
     smearing contrib. (-TS)   =      -0.00000018 Ry

     convergence has been achieved in   4 iterations

     Writing output data file Sn.save
 
     init_run     :      4.22s CPU      6.05s WALL (       1 calls)
     electrons    :     48.68s CPU     96.85s WALL (       1 calls)

     Called by init_run:
     wfcinit      :      3.81s CPU      5.33s WALL (       1 calls)
     potinit      :      0.07s CPU      0.13s WALL (       1 calls)

     Called by electrons:
     c_bands      :     44.50s CPU     88.52s WALL (       5 calls)
     sum_band     :      3.77s CPU      7.47s WALL (       5 calls)
     v_of_rho     :      0.21s CPU      0.42s WALL (       5 calls)
     v_h          :      0.05s CPU      0.11s WALL (       5 calls)
     v_xc         :      0.16s CPU      0.31s WALL (       5 calls)
     mix_rho      :      0.01s CPU      0.04s WALL (       5 calls)

     Called by c_bands:
     init_us_2    :      0.15s CPU      0.23s WALL (    1320 calls)
     cegterg      :     43.40s CPU     86.60s WALL (     600 calls)

     Called by sum_band:

     Called by *egterg:
     h_psi        :     39.68s CPU     77.14s WALL (    3292 calls)
     g_psi        :      0.07s CPU      0.11s WALL (    2572 calls)
     cdiaghg      :      3.37s CPU      6.81s WALL (    3052 calls)
     cegterg:over :      1.57s CPU      3.22s WALL (    2572 calls)
     cegterg:upda :      0.29s CPU      0.35s WALL (    2572 calls)
     cegterg:last :      0.14s CPU      0.19s WALL (     840 calls)

     Called by h_psi:
     h_psi:vloc   :     38.17s CPU     74.33s WALL (    3292 calls)
     h_psi:vnl    :      1.46s CPU      2.74s WALL (    3292 calls)
     add_vuspsi   :      0.21s CPU      0.28s WALL (    3292 calls)

     General routines
     calbec       :      1.23s CPU      2.45s WALL (    3292 calls)
     fft          :      0.14s CPU      0.33s WALL (      56 calls)
     fftw         :     40.28s CPU     79.67s WALL (   90544 calls)
     davcio       :      0.00s CPU      0.09s WALL (     120 calls)
 
     Parallel routines
     fft_scatter  :     30.98s CPU     66.10s WALL (   90600 calls)
 
     PWSCF        :  0m53.71s CPU     1m44.37s WALL

 
   This run was terminated on:  12:20:56   2Mar2020            

=------------------------------------------------------------------------------=
   JOB DONE.
=------------------------------------------------------------------------------=
