
     Program PWSCF v.5.4.0 starts on  8Mar2020 at 21:10:46 

     This program is part of the open-source Quantum ESPRESSO suite
     for quantum simulation of materials; please cite
         "P. Giannozzi et al., J. Phys.:Condens. Matter 21 395502 (2009);
          URL http://www.quantum-espresso.org", 
     in publications or presentations arising from this work. More details at
     http://www.quantum-espresso.org/quote

     Parallel version (MPI & OpenMP), running on      16 processor cores
     Number of MPI processes:                16
     Threads/MPI process:                     1
     R & G space division:  proc/nbgrp/npool/nimage =      16
     Waiting for input...
     Reading input from standard input
Warning: card &IONS ignored
Warning: card / ignored
Warning: card &CELL ignored
Warning: card / ignored

     Current dimensions of program PWSCF are:
     Max number of different atomic species (ntypx) = 10
     Max number of k-points (npk) =  40000
     Max angular momentum in pseudopotentials (lmaxx) =  3
               file Sn.rel-pbe-dn-kjpaw_psl.1.0.0.UPF: wavefunction(s)  5S 5P 5P 4D 4D renormalized

     Subspace diagonalization in iterative solution of the eigenvalue problem:
     a serial algorithm will be used

 
     Parallelization info
     --------------------
     sticks:   dense  smooth     PW     G-vecs:    dense   smooth      PW
     Min          52      52     15                 1019     1019     168
     Max          53      53     16                 1023     1023     172
     Sum         847     847    253                16361    16361    2733
 

     Title: 
     Sn                                                                         


     bravais-lattice index     =            0
     lattice parameter (alat)  =       8.7524  a.u.
     unit-cell volume          =     474.0897 (a.u.)^3
     number of atoms/cell      =            2
     number of atomic types    =            1
     number of electrons       =        28.00
     number of Kohn-Sham states=           36
     kinetic-energy cutoff     =      40.0000  Ry
     charge density cutoff     =     160.0000  Ry
     convergence threshold     =      1.0E-06
     mixing beta               =       0.7000
     number of iterations used =            8  plain     mixing
     Exchange-correlation      =  SLA  PW   PBX  PBC ( 1  4  3  4 0 0)
     Non magnetic calculation with spin-orbit


     celldm(1)=   8.752360  celldm(2)=   0.000000  celldm(3)=   0.000000
     celldm(4)=   0.000000  celldm(5)=   0.000000  celldm(6)=   0.000000

     crystal axes: (cart. coord. in units of alat)
               a(1) = (   0.000000   0.707107   0.707107 )  
               a(2) = (   0.707107   0.000000   0.707107 )  
               a(3) = (   0.707107   0.707107   0.000000 )  

     reciprocal axes: (cart. coord. in units 2 pi/alat)
               b(1) = ( -0.707107  0.707107  0.707107 )  
               b(2) = (  0.707107 -0.707107  0.707107 )  
               b(3) = (  0.707107  0.707107 -0.707107 )  


     PseudoPot. # 1 for Sn read from file:
     ../PseudopotentialDatabase/Sn.rel-pbe-dn-kjpaw_psl.1.0.0.UPF
     MD5 check sum: 6bcaba2b82cf8d008985ef5bb9854e68
     Pseudo is Projector augmented-wave + core cor, Zval = 14.0
     Generated using "atomic" code by A. Dal Corso  v.6.3
     Shape of augmentation charge: PSQ
     Using radial grid of 1243 points, 10 beta functions with: 
                l(1) =   0
                l(2) =   0
                l(3) =   1
                l(4) =   1
                l(5) =   1
                l(6) =   1
                l(7) =   2
                l(8) =   2
                l(9) =   2
               l(10) =   2
     Q(r) pseudized with 0 coefficients 


     atomic species   valence    mass     pseudopotential
        Sn            14.00   118.71000     Sn( 1.00)

     48 Sym. Ops., with inversion, found (24 have fractional translation)


                                    s                        frac. trans.

      isym =  1     identity                                     

 cryst.   s( 1) = (     1          0          0      )
                  (     0          1          0      )
                  (     0          0          1      )

 cart.    s( 1) = (  1.0000000  0.0000000  0.0000000 )
                  (  0.0000000  1.0000000  0.0000000 )
                  (  0.0000000  0.0000000  1.0000000 )


      isym =  2     180 deg rotation - cart. axis [0,0,1]        

 cryst.   s( 2) = (     0          1         -1      )
                  (     1          0         -1      )
                  (     0          0         -1      )

 cart.    s( 2) = ( -1.0000000  0.0000000  0.0000000 )
                  (  0.0000000 -1.0000000  0.0000000 )
                  (  0.0000000  0.0000000  1.0000000 )


      isym =  3     180 deg rotation - cart. axis [0,1,0]        

 cryst.   s( 3) = (     0         -1          1      )
                  (     0         -1          0      )
                  (     1         -1          0      )

 cart.    s( 3) = ( -1.0000000  0.0000000  0.0000000 )
                  (  0.0000000  1.0000000  0.0000000 )
                  (  0.0000000  0.0000000 -1.0000000 )


      isym =  4     180 deg rotation - cart. axis [1,0,0]        

 cryst.   s( 4) = (    -1          0          0      )
                  (    -1          0          1      )
                  (    -1          1          0      )

 cart.    s( 4) = (  1.0000000  0.0000000  0.0000000 )
                  (  0.0000000 -1.0000000  0.0000000 )
                  (  0.0000000  0.0000000 -1.0000000 )


      isym =  5     180 deg rotation - cart. axis [1,1,0]        

 cryst.   s( 5) = (    -1          0          1      )    f =( -0.2500000 )
                  (     0         -1          1      )       ( -0.2500000 )
                  (     0          0          1      )       ( -0.2500000 )

 cart.    s( 5) = (  0.0000000  1.0000000  0.0000000 )    f =( -0.3535534 )
                  (  1.0000000  0.0000000  0.0000000 )       ( -0.3535534 )
                  (  0.0000000  0.0000000 -1.0000000 )       ( -0.3535534 )


      isym =  6     180 deg rotation - cart. axis [1,-1,0]       

 cryst.   s( 6) = (     0         -1          0      )    f =( -0.2500000 )
                  (    -1          0          0      )       ( -0.2500000 )
                  (     0          0         -1      )       ( -0.2500000 )

 cart.    s( 6) = (  0.0000000 -1.0000000  0.0000000 )    f =( -0.3535534 )
                  ( -1.0000000  0.0000000  0.0000000 )       ( -0.3535534 )
                  (  0.0000000  0.0000000 -1.0000000 )       ( -0.3535534 )


      isym =  7      90 deg rotation - cart. axis [0,0,-1]       

 cryst.   s( 7) = (     0          1          0      )    f =( -0.2500000 )
                  (     0          1         -1      )       ( -0.2500000 )
                  (    -1          1          0      )       ( -0.2500000 )

 cart.    s( 7) = (  0.0000000  1.0000000  0.0000000 )    f =( -0.3535534 )
                  ( -1.0000000  0.0000000  0.0000000 )       ( -0.3535534 )
                  (  0.0000000  0.0000000  1.0000000 )       ( -0.3535534 )


      isym =  8      90 deg rotation - cart. axis [0,0,1]        

 cryst.   s( 8) = (     1          0         -1      )    f =( -0.2500000 )
                  (     1          0          0      )       ( -0.2500000 )
                  (     1         -1          0      )       ( -0.2500000 )

 cart.    s( 8) = (  0.0000000 -1.0000000  0.0000000 )    f =( -0.3535534 )
                  (  1.0000000  0.0000000  0.0000000 )       ( -0.3535534 )
                  (  0.0000000  0.0000000  1.0000000 )       ( -0.3535534 )


      isym =  9     180 deg rotation - cart. axis [1,0,1]        

 cryst.   s( 9) = (    -1          1          0      )    f =( -0.2500000 )
                  (     0          1          0      )       ( -0.2500000 )
                  (     0          1         -1      )       ( -0.2500000 )

 cart.    s( 9) = (  0.0000000  0.0000000  1.0000000 )    f =( -0.3535534 )
                  (  0.0000000 -1.0000000  0.0000000 )       ( -0.3535534 )
                  (  1.0000000  0.0000000  0.0000000 )       ( -0.3535534 )


      isym = 10     180 deg rotation - cart. axis [-1,0,1]       

 cryst.   s(10) = (     0          0         -1      )    f =( -0.2500000 )
                  (     0         -1          0      )       ( -0.2500000 )
                  (    -1          0          0      )       ( -0.2500000 )

 cart.    s(10) = (  0.0000000  0.0000000 -1.0000000 )    f =( -0.3535534 )
                  (  0.0000000 -1.0000000  0.0000000 )       ( -0.3535534 )
                  ( -1.0000000  0.0000000  0.0000000 )       ( -0.3535534 )


      isym = 11      90 deg rotation - cart. axis [0,1,0]        

 cryst.   s(11) = (     0          0          1      )    f =( -0.2500000 )
                  (    -1          0          1      )       ( -0.2500000 )
                  (     0         -1          1      )       ( -0.2500000 )

 cart.    s(11) = (  0.0000000  0.0000000  1.0000000 )    f =( -0.3535534 )
                  (  0.0000000  1.0000000  0.0000000 )       ( -0.3535534 )
                  ( -1.0000000  0.0000000  0.0000000 )       ( -0.3535534 )


      isym = 12      90 deg rotation - cart. axis [0,-1,0]       

 cryst.   s(12) = (     1         -1          0      )    f =( -0.2500000 )
                  (     1          0         -1      )       ( -0.2500000 )
                  (     1          0          0      )       ( -0.2500000 )

 cart.    s(12) = (  0.0000000  0.0000000 -1.0000000 )    f =( -0.3535534 )
                  (  0.0000000  1.0000000  0.0000000 )       ( -0.3535534 )
                  (  1.0000000  0.0000000  0.0000000 )       ( -0.3535534 )


      isym = 13     180 deg rotation - cart. axis [0,1,1]        

 cryst.   s(13) = (     1          0          0      )    f =( -0.2500000 )
                  (     1         -1          0      )       ( -0.2500000 )
                  (     1          0         -1      )       ( -0.2500000 )

 cart.    s(13) = ( -1.0000000  0.0000000  0.0000000 )    f =( -0.3535534 )
                  (  0.0000000  0.0000000  1.0000000 )       ( -0.3535534 )
                  (  0.0000000  1.0000000  0.0000000 )       ( -0.3535534 )


      isym = 14     180 deg rotation - cart. axis [0,1,-1]       

 cryst.   s(14) = (    -1          0          0      )    f =( -0.2500000 )
                  (     0          0         -1      )       ( -0.2500000 )
                  (     0         -1          0      )       ( -0.2500000 )

 cart.    s(14) = ( -1.0000000  0.0000000  0.0000000 )    f =( -0.3535534 )
                  (  0.0000000  0.0000000 -1.0000000 )       ( -0.3535534 )
                  (  0.0000000 -1.0000000  0.0000000 )       ( -0.3535534 )


      isym = 15      90 deg rotation - cart. axis [-1,0,0]       

 cryst.   s(15) = (     0         -1          1      )    f =( -0.2500000 )
                  (     0          0          1      )       ( -0.2500000 )
                  (    -1          0          1      )       ( -0.2500000 )

 cart.    s(15) = (  1.0000000  0.0000000  0.0000000 )    f =( -0.3535534 )
                  (  0.0000000  0.0000000  1.0000000 )       ( -0.3535534 )
                  (  0.0000000 -1.0000000  0.0000000 )       ( -0.3535534 )


      isym = 16      90 deg rotation - cart. axis [1,0,0]        

 cryst.   s(16) = (     0          1         -1      )    f =( -0.2500000 )
                  (    -1          1          0      )       ( -0.2500000 )
                  (     0          1          0      )       ( -0.2500000 )

 cart.    s(16) = (  1.0000000  0.0000000  0.0000000 )    f =( -0.3535534 )
                  (  0.0000000  0.0000000 -1.0000000 )       ( -0.3535534 )
                  (  0.0000000  1.0000000  0.0000000 )       ( -0.3535534 )


      isym = 17     120 deg rotation - cart. axis [-1,-1,-1]     

 cryst.   s(17) = (     0          0          1      )
                  (     1          0          0      )
                  (     0          1          0      )

 cart.    s(17) = (  0.0000000  1.0000000  0.0000000 )
                  (  0.0000000  0.0000000  1.0000000 )
                  (  1.0000000  0.0000000  0.0000000 )


      isym = 18     120 deg rotation - cart. axis [-1,1,1]       

 cryst.   s(18) = (     1         -1          0      )
                  (     0         -1          1      )
                  (     0         -1          0      )

 cart.    s(18) = (  0.0000000 -1.0000000  0.0000000 )
                  (  0.0000000  0.0000000  1.0000000 )
                  ( -1.0000000  0.0000000  0.0000000 )


      isym = 19     120 deg rotation - cart. axis [1,1,-1]       

 cryst.   s(19) = (    -1          1          0      )
                  (    -1          0          0      )
                  (    -1          0          1      )

 cart.    s(19) = (  0.0000000  1.0000000  0.0000000 )
                  (  0.0000000  0.0000000 -1.0000000 )
                  ( -1.0000000  0.0000000  0.0000000 )


      isym = 20     120 deg rotation - cart. axis [1,-1,1]       

 cryst.   s(20) = (     0          0         -1      )
                  (     0          1         -1      )
                  (     1          0         -1      )

 cart.    s(20) = (  0.0000000 -1.0000000  0.0000000 )
                  (  0.0000000  0.0000000 -1.0000000 )
                  (  1.0000000  0.0000000  0.0000000 )


      isym = 21     120 deg rotation - cart. axis [1,1,1]        

 cryst.   s(21) = (     0          1          0      )
                  (     0          0          1      )
                  (     1          0          0      )

 cart.    s(21) = (  0.0000000  0.0000000  1.0000000 )
                  (  1.0000000  0.0000000  0.0000000 )
                  (  0.0000000  1.0000000  0.0000000 )


      isym = 22     120 deg rotation - cart. axis [-1,1,-1]      

 cryst.   s(22) = (    -1          0          1      )
                  (    -1          1          0      )
                  (    -1          0          0      )

 cart.    s(22) = (  0.0000000  0.0000000  1.0000000 )
                  ( -1.0000000  0.0000000  0.0000000 )
                  (  0.0000000 -1.0000000  0.0000000 )


      isym = 23     120 deg rotation - cart. axis [1,-1,-1]      

 cryst.   s(23) = (     1          0         -1      )
                  (     0          0         -1      )
                  (     0          1         -1      )

 cart.    s(23) = (  0.0000000  0.0000000 -1.0000000 )
                  ( -1.0000000  0.0000000  0.0000000 )
                  (  0.0000000  1.0000000  0.0000000 )


      isym = 24     120 deg rotation - cart. axis [-1,-1,1]      

 cryst.   s(24) = (     0         -1          0      )
                  (     1         -1          0      )
                  (     0         -1          1      )

 cart.    s(24) = (  0.0000000  0.0000000 -1.0000000 )
                  (  1.0000000  0.0000000  0.0000000 )
                  (  0.0000000 -1.0000000  0.0000000 )


      isym = 25     inversion                                    

 cryst.   s(25) = (    -1          0          0      )    f =( -0.2500000 )
                  (     0         -1          0      )       ( -0.2500000 )
                  (     0          0         -1      )       ( -0.2500000 )

 cart.    s(25) = ( -1.0000000  0.0000000  0.0000000 )    f =( -0.3535534 )
                  (  0.0000000 -1.0000000  0.0000000 )       ( -0.3535534 )
                  (  0.0000000  0.0000000 -1.0000000 )       ( -0.3535534 )


      isym = 26     inv. 180 deg rotation - cart. axis [0,0,1]   

 cryst.   s(26) = (     0         -1          1      )    f =( -0.2500000 )
                  (    -1          0          1      )       ( -0.2500000 )
                  (     0          0          1      )       ( -0.2500000 )

 cart.    s(26) = (  1.0000000  0.0000000  0.0000000 )    f =( -0.3535534 )
                  (  0.0000000  1.0000000  0.0000000 )       ( -0.3535534 )
                  (  0.0000000  0.0000000 -1.0000000 )       ( -0.3535534 )


      isym = 27     inv. 180 deg rotation - cart. axis [0,1,0]   

 cryst.   s(27) = (     0          1         -1      )    f =( -0.2500000 )
                  (     0          1          0      )       ( -0.2500000 )
                  (    -1          1          0      )       ( -0.2500000 )

 cart.    s(27) = (  1.0000000  0.0000000  0.0000000 )    f =( -0.3535534 )
                  (  0.0000000 -1.0000000  0.0000000 )       ( -0.3535534 )
                  (  0.0000000  0.0000000  1.0000000 )       ( -0.3535534 )


      isym = 28     inv. 180 deg rotation - cart. axis [1,0,0]   

 cryst.   s(28) = (     1          0          0      )    f =( -0.2500000 )
                  (     1          0         -1      )       ( -0.2500000 )
                  (     1         -1          0      )       ( -0.2500000 )

 cart.    s(28) = ( -1.0000000  0.0000000  0.0000000 )    f =( -0.3535534 )
                  (  0.0000000  1.0000000  0.0000000 )       ( -0.3535534 )
                  (  0.0000000  0.0000000  1.0000000 )       ( -0.3535534 )


      isym = 29     inv. 180 deg rotation - cart. axis [1,1,0]   

 cryst.   s(29) = (     1          0         -1      )
                  (     0          1         -1      )
                  (     0          0         -1      )

 cart.    s(29) = (  0.0000000 -1.0000000  0.0000000 )
                  ( -1.0000000  0.0000000  0.0000000 )
                  (  0.0000000  0.0000000  1.0000000 )


      isym = 30     inv. 180 deg rotation - cart. axis [1,-1,0]  

 cryst.   s(30) = (     0          1          0      )
                  (     1          0          0      )
                  (     0          0          1      )

 cart.    s(30) = (  0.0000000  1.0000000  0.0000000 )
                  (  1.0000000  0.0000000  0.0000000 )
                  (  0.0000000  0.0000000  1.0000000 )


      isym = 31     inv.  90 deg rotation - cart. axis [0,0,-1]  

 cryst.   s(31) = (     0         -1          0      )
                  (     0         -1          1      )
                  (     1         -1          0      )

 cart.    s(31) = (  0.0000000 -1.0000000  0.0000000 )
                  (  1.0000000  0.0000000  0.0000000 )
                  (  0.0000000  0.0000000 -1.0000000 )


      isym = 32     inv.  90 deg rotation - cart. axis [0,0,1]   

 cryst.   s(32) = (    -1          0          1      )
                  (    -1          0          0      )
                  (    -1          1          0      )

 cart.    s(32) = (  0.0000000  1.0000000  0.0000000 )
                  ( -1.0000000  0.0000000  0.0000000 )
                  (  0.0000000  0.0000000 -1.0000000 )


      isym = 33     inv. 180 deg rotation - cart. axis [1,0,1]   

 cryst.   s(33) = (     1         -1          0      )
                  (     0         -1          0      )
                  (     0         -1          1      )

 cart.    s(33) = (  0.0000000  0.0000000 -1.0000000 )
                  (  0.0000000  1.0000000  0.0000000 )
                  ( -1.0000000  0.0000000  0.0000000 )


      isym = 34     inv. 180 deg rotation - cart. axis [-1,0,1]  

 cryst.   s(34) = (     0          0          1      )
                  (     0          1          0      )
                  (     1          0          0      )

 cart.    s(34) = (  0.0000000  0.0000000  1.0000000 )
                  (  0.0000000  1.0000000  0.0000000 )
                  (  1.0000000  0.0000000  0.0000000 )


      isym = 35     inv.  90 deg rotation - cart. axis [0,1,0]   

 cryst.   s(35) = (     0          0         -1      )
                  (     1          0         -1      )
                  (     0          1         -1      )

 cart.    s(35) = (  0.0000000  0.0000000 -1.0000000 )
                  (  0.0000000 -1.0000000  0.0000000 )
                  (  1.0000000  0.0000000  0.0000000 )


      isym = 36     inv.  90 deg rotation - cart. axis [0,-1,0]  

 cryst.   s(36) = (    -1          1          0      )
                  (    -1          0          1      )
                  (    -1          0          0      )

 cart.    s(36) = (  0.0000000  0.0000000  1.0000000 )
                  (  0.0000000 -1.0000000  0.0000000 )
                  ( -1.0000000  0.0000000  0.0000000 )


      isym = 37     inv. 180 deg rotation - cart. axis [0,1,1]   

 cryst.   s(37) = (    -1          0          0      )
                  (    -1          1          0      )
                  (    -1          0          1      )

 cart.    s(37) = (  1.0000000  0.0000000  0.0000000 )
                  (  0.0000000  0.0000000 -1.0000000 )
                  (  0.0000000 -1.0000000  0.0000000 )


      isym = 38     inv. 180 deg rotation - cart. axis [0,1,-1]  

 cryst.   s(38) = (     1          0          0      )
                  (     0          0          1      )
                  (     0          1          0      )

 cart.    s(38) = (  1.0000000  0.0000000  0.0000000 )
                  (  0.0000000  0.0000000  1.0000000 )
                  (  0.0000000  1.0000000  0.0000000 )


      isym = 39     inv.  90 deg rotation - cart. axis [-1,0,0]  

 cryst.   s(39) = (     0          1         -1      )
                  (     0          0         -1      )
                  (     1          0         -1      )

 cart.    s(39) = ( -1.0000000  0.0000000  0.0000000 )
                  (  0.0000000  0.0000000 -1.0000000 )
                  (  0.0000000  1.0000000  0.0000000 )


      isym = 40     inv.  90 deg rotation - cart. axis [1,0,0]   

 cryst.   s(40) = (     0         -1          1      )
                  (     1         -1          0      )
                  (     0         -1          0      )

 cart.    s(40) = ( -1.0000000  0.0000000  0.0000000 )
                  (  0.0000000  0.0000000  1.0000000 )
                  (  0.0000000 -1.0000000  0.0000000 )


      isym = 41     inv. 120 deg rotation - cart. axis [-1,-1,-1]

 cryst.   s(41) = (     0          0         -1      )    f =( -0.2500000 )
                  (    -1          0          0      )       ( -0.2500000 )
                  (     0         -1          0      )       ( -0.2500000 )

 cart.    s(41) = (  0.0000000 -1.0000000  0.0000000 )    f =( -0.3535534 )
                  (  0.0000000  0.0000000 -1.0000000 )       ( -0.3535534 )
                  ( -1.0000000  0.0000000  0.0000000 )       ( -0.3535534 )


      isym = 42     inv. 120 deg rotation - cart. axis [-1,1,1]  

 cryst.   s(42) = (    -1          1          0      )    f =( -0.2500000 )
                  (     0          1         -1      )       ( -0.2500000 )
                  (     0          1          0      )       ( -0.2500000 )

 cart.    s(42) = (  0.0000000  1.0000000  0.0000000 )    f =( -0.3535534 )
                  (  0.0000000  0.0000000 -1.0000000 )       ( -0.3535534 )
                  (  1.0000000  0.0000000  0.0000000 )       ( -0.3535534 )


      isym = 43     inv. 120 deg rotation - cart. axis [1,1,-1]  

 cryst.   s(43) = (     1         -1          0      )    f =( -0.2500000 )
                  (     1          0          0      )       ( -0.2500000 )
                  (     1          0         -1      )       ( -0.2500000 )

 cart.    s(43) = (  0.0000000 -1.0000000  0.0000000 )    f =( -0.3535534 )
                  (  0.0000000  0.0000000  1.0000000 )       ( -0.3535534 )
                  (  1.0000000  0.0000000  0.0000000 )       ( -0.3535534 )


      isym = 44     inv. 120 deg rotation - cart. axis [1,-1,1]  

 cryst.   s(44) = (     0          0          1      )    f =( -0.2500000 )
                  (     0         -1          1      )       ( -0.2500000 )
                  (    -1          0          1      )       ( -0.2500000 )

 cart.    s(44) = (  0.0000000  1.0000000  0.0000000 )    f =( -0.3535534 )
                  (  0.0000000  0.0000000  1.0000000 )       ( -0.3535534 )
                  ( -1.0000000  0.0000000  0.0000000 )       ( -0.3535534 )


      isym = 45     inv. 120 deg rotation - cart. axis [1,1,1]   

 cryst.   s(45) = (     0         -1          0      )    f =( -0.2500000 )
                  (     0          0         -1      )       ( -0.2500000 )
                  (    -1          0          0      )       ( -0.2500000 )

 cart.    s(45) = (  0.0000000  0.0000000 -1.0000000 )    f =( -0.3535534 )
                  ( -1.0000000  0.0000000  0.0000000 )       ( -0.3535534 )
                  (  0.0000000 -1.0000000  0.0000000 )       ( -0.3535534 )


      isym = 46     inv. 120 deg rotation - cart. axis [-1,1,-1] 

 cryst.   s(46) = (     1          0         -1      )    f =( -0.2500000 )
                  (     1         -1          0      )       ( -0.2500000 )
                  (     1          0          0      )       ( -0.2500000 )

 cart.    s(46) = (  0.0000000  0.0000000 -1.0000000 )    f =( -0.3535534 )
                  (  1.0000000  0.0000000  0.0000000 )       ( -0.3535534 )
                  (  0.0000000  1.0000000  0.0000000 )       ( -0.3535534 )


      isym = 47     inv. 120 deg rotation - cart. axis [1,-1,-1] 

 cryst.   s(47) = (    -1          0          1      )    f =( -0.2500000 )
                  (     0          0          1      )       ( -0.2500000 )
                  (     0         -1          1      )       ( -0.2500000 )

 cart.    s(47) = (  0.0000000  0.0000000  1.0000000 )    f =( -0.3535534 )
                  (  1.0000000  0.0000000  0.0000000 )       ( -0.3535534 )
                  (  0.0000000 -1.0000000  0.0000000 )       ( -0.3535534 )


      isym = 48     inv. 120 deg rotation - cart. axis [-1,-1,1] 

 cryst.   s(48) = (     0          1          0      )    f =( -0.2500000 )
                  (    -1          1          0      )       ( -0.2500000 )
                  (     0          1         -1      )       ( -0.2500000 )

 cart.    s(48) = (  0.0000000  0.0000000  1.0000000 )    f =( -0.3535534 )
                  ( -1.0000000  0.0000000  0.0000000 )       ( -0.3535534 )
                  (  0.0000000  1.0000000  0.0000000 )       ( -0.3535534 )


   Cartesian axes

     site n.     atom                  positions (alat units)
         1           Sn  tau(   1) = (   0.0000000   0.0000000   0.0000000  )
         2           Sn  tau(   2) = (   0.3535534   0.3535534   0.3535534  )

   Crystallographic axes

     site n.     atom                  positions (cryst. coord.)
         1           Sn  tau(   1) = (  0.0000000  0.0000000  0.0000000  )
         2           Sn  tau(   2) = (  0.2500000  0.2500000  0.2500000  )

     number of k points=  1661  gaussian smearing, width (Ry)=  0.0001
                       cart. coord. in units 2pi/alat
        k(    1) = (   0.0000000   0.0000000   0.0000000), wk =   0.0000156
        k(    2) = (   0.0176777   0.0176777  -0.0176777), wk =   0.0001250
        k(    3) = (   0.0353553   0.0353553  -0.0353553), wk =   0.0001250
        k(    4) = (   0.0530330   0.0530330  -0.0530330), wk =   0.0001250
        k(    5) = (   0.0707107   0.0707107  -0.0707107), wk =   0.0001250
        k(    6) = (   0.0883883   0.0883883  -0.0883883), wk =   0.0001250
        k(    7) = (   0.1060660   0.1060660  -0.1060660), wk =   0.0001250
        k(    8) = (   0.1237437   0.1237437  -0.1237437), wk =   0.0001250
        k(    9) = (   0.1414214   0.1414214  -0.1414214), wk =   0.0001250
        k(   10) = (   0.1590990   0.1590990  -0.1590990), wk =   0.0001250
        k(   11) = (   0.1767767   0.1767767  -0.1767767), wk =   0.0001250
        k(   12) = (   0.1944544   0.1944544  -0.1944544), wk =   0.0001250
        k(   13) = (   0.2121320   0.2121320  -0.2121320), wk =   0.0001250
        k(   14) = (   0.2298097   0.2298097  -0.2298097), wk =   0.0001250
        k(   15) = (   0.2474874   0.2474874  -0.2474874), wk =   0.0001250
        k(   16) = (   0.2651650   0.2651650  -0.2651650), wk =   0.0001250
        k(   17) = (   0.2828427   0.2828427  -0.2828427), wk =   0.0001250
        k(   18) = (   0.3005204   0.3005204  -0.3005204), wk =   0.0001250
        k(   19) = (   0.3181981   0.3181981  -0.3181981), wk =   0.0001250
        k(   20) = (   0.3358757   0.3358757  -0.3358757), wk =   0.0001250
        k(   21) = (  -0.3535534  -0.3535534   0.3535534), wk =   0.0000625
        k(   22) = (   0.0353553   0.0000000   0.0000000), wk =   0.0000937
        k(   23) = (   0.0530330   0.0176777  -0.0176777), wk =   0.0003750
        k(   24) = (   0.0707107   0.0353553  -0.0353553), wk =   0.0003750
        k(   25) = (   0.0883883   0.0530330  -0.0530330), wk =   0.0003750
        k(   26) = (   0.1060660   0.0707107  -0.0707107), wk =   0.0003750
        k(   27) = (   0.1237437   0.0883883  -0.0883883), wk =   0.0003750
        k(   28) = (   0.1414214   0.1060660  -0.1060660), wk =   0.0003750
        k(   29) = (   0.1590990   0.1237437  -0.1237437), wk =   0.0003750
        k(   30) = (   0.1767767   0.1414214  -0.1414214), wk =   0.0003750
        k(   31) = (   0.1944544   0.1590990  -0.1590990), wk =   0.0003750
        k(   32) = (   0.2121320   0.1767767  -0.1767767), wk =   0.0003750
        k(   33) = (   0.2298097   0.1944544  -0.1944544), wk =   0.0003750
        k(   34) = (   0.2474874   0.2121320  -0.2121320), wk =   0.0003750
        k(   35) = (   0.2651650   0.2298097  -0.2298097), wk =   0.0003750
        k(   36) = (   0.2828427   0.2474874  -0.2474874), wk =   0.0003750
        k(   37) = (   0.3005204   0.2651650  -0.2651650), wk =   0.0003750
        k(   38) = (   0.3181981   0.2828427  -0.2828427), wk =   0.0003750
        k(   39) = (   0.3358757   0.3005204  -0.3005204), wk =   0.0003750
        k(   40) = (   0.3535534   0.3181981  -0.3181981), wk =   0.0003750
        k(   41) = (  -0.3358757  -0.3712311   0.3712311), wk =   0.0003750
        k(   42) = (  -0.3181981  -0.3535534   0.3535534), wk =   0.0003750
        k(   43) = (  -0.3005204  -0.3358757   0.3358757), wk =   0.0003750
        k(   44) = (  -0.2828427  -0.3181981   0.3181981), wk =   0.0003750
        k(   45) = (  -0.2651650  -0.3005204   0.3005204), wk =   0.0003750
        k(   46) = (  -0.2474874  -0.2828427   0.2828427), wk =   0.0003750
        k(   47) = (  -0.2298097  -0.2651650   0.2651650), wk =   0.0003750
        k(   48) = (  -0.2121320  -0.2474874   0.2474874), wk =   0.0003750
        k(   49) = (  -0.1944544  -0.2298097   0.2298097), wk =   0.0003750
        k(   50) = (  -0.1767767  -0.2121320   0.2121320), wk =   0.0003750
        k(   51) = (  -0.1590990  -0.1944544   0.1944544), wk =   0.0003750
        k(   52) = (  -0.1414214  -0.1767767   0.1767767), wk =   0.0003750
        k(   53) = (  -0.1237437  -0.1590990   0.1590990), wk =   0.0003750
        k(   54) = (  -0.1060660  -0.1414214   0.1414214), wk =   0.0003750
        k(   55) = (  -0.0883883  -0.1237437   0.1237437), wk =   0.0003750
        k(   56) = (  -0.0707107  -0.1060660   0.1060660), wk =   0.0003750
        k(   57) = (  -0.0530330  -0.0883883   0.0883883), wk =   0.0003750
        k(   58) = (  -0.0353553  -0.0707107   0.0707107), wk =   0.0003750
        k(   59) = (  -0.0176777  -0.0530330   0.0530330), wk =   0.0003750
        k(   60) = (  -0.0000000  -0.0353553   0.0353553), wk =   0.0001875
        k(   61) = (   0.0707107   0.0000000   0.0000000), wk =   0.0000937
        k(   62) = (   0.0883883   0.0176777  -0.0176777), wk =   0.0003750
        k(   63) = (   0.1060660   0.0353553  -0.0353553), wk =   0.0003750
        k(   64) = (   0.1237437   0.0530330  -0.0530330), wk =   0.0003750
        k(   65) = (   0.1414214   0.0707107  -0.0707107), wk =   0.0003750
        k(   66) = (   0.1590990   0.0883883  -0.0883883), wk =   0.0003750
        k(   67) = (   0.1767767   0.1060660  -0.1060660), wk =   0.0003750
        k(   68) = (   0.1944544   0.1237437  -0.1237437), wk =   0.0003750
        k(   69) = (   0.2121320   0.1414214  -0.1414214), wk =   0.0003750
        k(   70) = (   0.2298097   0.1590990  -0.1590990), wk =   0.0003750
        k(   71) = (   0.2474874   0.1767767  -0.1767767), wk =   0.0003750
        k(   72) = (   0.2651650   0.1944544  -0.1944544), wk =   0.0003750
        k(   73) = (   0.2828427   0.2121320  -0.2121320), wk =   0.0003750
        k(   74) = (   0.3005204   0.2298097  -0.2298097), wk =   0.0003750
        k(   75) = (   0.3181981   0.2474874  -0.2474874), wk =   0.0003750
        k(   76) = (   0.3358757   0.2651650  -0.2651650), wk =   0.0003750
        k(   77) = (   0.3535534   0.2828427  -0.2828427), wk =   0.0003750
        k(   78) = (   0.3712311   0.3005204  -0.3005204), wk =   0.0003750
        k(   79) = (  -0.3181981  -0.3889087   0.3889087), wk =   0.0003750
        k(   80) = (  -0.3005204  -0.3712311   0.3712311), wk =   0.0003750
        k(   81) = (  -0.2828427  -0.3535534   0.3535534), wk =   0.0003750
        k(   82) = (  -0.2651650  -0.3358757   0.3358757), wk =   0.0003750
        k(   83) = (  -0.2474874  -0.3181981   0.3181981), wk =   0.0003750
        k(   84) = (  -0.2298097  -0.3005204   0.3005204), wk =   0.0003750
        k(   85) = (  -0.2121320  -0.2828427   0.2828427), wk =   0.0003750
        k(   86) = (  -0.1944544  -0.2651650   0.2651650), wk =   0.0003750
        k(   87) = (  -0.1767767  -0.2474874   0.2474874), wk =   0.0003750
        k(   88) = (  -0.1590990  -0.2298097   0.2298097), wk =   0.0003750
        k(   89) = (  -0.1414214  -0.2121320   0.2121320), wk =   0.0003750
        k(   90) = (  -0.1237437  -0.1944544   0.1944544), wk =   0.0003750
        k(   91) = (  -0.1060660  -0.1767767   0.1767767), wk =   0.0003750
        k(   92) = (  -0.0883883  -0.1590990   0.1590990), wk =   0.0003750
        k(   93) = (  -0.0707107  -0.1414214   0.1414214), wk =   0.0003750
        k(   94) = (  -0.0530330  -0.1237437   0.1237437), wk =   0.0003750
        k(   95) = (  -0.0353553  -0.1060660   0.1060660), wk =   0.0003750
        k(   96) = (  -0.0176777  -0.0883883   0.0883883), wk =   0.0003750
        k(   97) = (  -0.0000000  -0.0707107   0.0707107), wk =   0.0001875
        k(   98) = (   0.1060660   0.0000000   0.0000000), wk =   0.0000937
        k(   99) = (   0.1237437   0.0176777  -0.0176777), wk =   0.0003750
        k(  100) = (   0.1414214   0.0353553  -0.0353553), wk =   0.0003750
        k(  101) = (   0.1590990   0.0530330  -0.0530330), wk =   0.0003750
        k(  102) = (   0.1767767   0.0707107  -0.0707107), wk =   0.0003750
        k(  103) = (   0.1944544   0.0883883  -0.0883883), wk =   0.0003750
        k(  104) = (   0.2121320   0.1060660  -0.1060660), wk =   0.0003750
        k(  105) = (   0.2298097   0.1237437  -0.1237437), wk =   0.0003750
        k(  106) = (   0.2474874   0.1414214  -0.1414214), wk =   0.0003750
        k(  107) = (   0.2651650   0.1590990  -0.1590990), wk =   0.0003750
        k(  108) = (   0.2828427   0.1767767  -0.1767767), wk =   0.0003750
        k(  109) = (   0.3005204   0.1944544  -0.1944544), wk =   0.0003750
        k(  110) = (   0.3181981   0.2121320  -0.2121320), wk =   0.0003750
        k(  111) = (   0.3358757   0.2298097  -0.2298097), wk =   0.0003750
        k(  112) = (   0.3535534   0.2474874  -0.2474874), wk =   0.0003750
        k(  113) = (   0.3712311   0.2651650  -0.2651650), wk =   0.0003750
        k(  114) = (   0.3889087   0.2828427  -0.2828427), wk =   0.0003750
        k(  115) = (  -0.3005204  -0.4065864   0.4065864), wk =   0.0003750
        k(  116) = (  -0.2828427  -0.3889087   0.3889087), wk =   0.0003750
        k(  117) = (  -0.2651650  -0.3712311   0.3712311), wk =   0.0003750
        k(  118) = (  -0.2474874  -0.3535534   0.3535534), wk =   0.0003750
        k(  119) = (  -0.2298097  -0.3358757   0.3358757), wk =   0.0003750
        k(  120) = (  -0.2121320  -0.3181981   0.3181981), wk =   0.0003750
        k(  121) = (  -0.1944544  -0.3005204   0.3005204), wk =   0.0003750
        k(  122) = (  -0.1767767  -0.2828427   0.2828427), wk =   0.0003750
        k(  123) = (  -0.1590990  -0.2651650   0.2651650), wk =   0.0003750
        k(  124) = (  -0.1414214  -0.2474874   0.2474874), wk =   0.0003750
        k(  125) = (  -0.1237437  -0.2298097   0.2298097), wk =   0.0003750
        k(  126) = (  -0.1060660  -0.2121320   0.2121320), wk =   0.0003750
        k(  127) = (  -0.0883883  -0.1944544   0.1944544), wk =   0.0003750
        k(  128) = (  -0.0707107  -0.1767767   0.1767767), wk =   0.0003750
        k(  129) = (  -0.0530330  -0.1590990   0.1590990), wk =   0.0003750
        k(  130) = (  -0.0353553  -0.1414214   0.1414214), wk =   0.0003750
        k(  131) = (  -0.0176777  -0.1237437   0.1237437), wk =   0.0003750
        k(  132) = (   0.0000000  -0.1060660   0.1060660), wk =   0.0001875
        k(  133) = (   0.1414214   0.0000000   0.0000000), wk =   0.0000937
        k(  134) = (   0.1590990   0.0176777  -0.0176777), wk =   0.0003750
        k(  135) = (   0.1767767   0.0353553  -0.0353553), wk =   0.0003750
        k(  136) = (   0.1944544   0.0530330  -0.0530330), wk =   0.0003750
        k(  137) = (   0.2121320   0.0707107  -0.0707107), wk =   0.0003750
        k(  138) = (   0.2298097   0.0883883  -0.0883883), wk =   0.0003750
        k(  139) = (   0.2474874   0.1060660  -0.1060660), wk =   0.0003750
        k(  140) = (   0.2651650   0.1237437  -0.1237437), wk =   0.0003750
        k(  141) = (   0.2828427   0.1414214  -0.1414214), wk =   0.0003750
        k(  142) = (   0.3005204   0.1590990  -0.1590990), wk =   0.0003750
        k(  143) = (   0.3181981   0.1767767  -0.1767767), wk =   0.0003750
        k(  144) = (   0.3358757   0.1944544  -0.1944544), wk =   0.0003750
        k(  145) = (   0.3535534   0.2121320  -0.2121320), wk =   0.0003750
        k(  146) = (   0.3712311   0.2298097  -0.2298097), wk =   0.0003750
        k(  147) = (   0.3889087   0.2474874  -0.2474874), wk =   0.0003750
        k(  148) = (   0.4065864   0.2651650  -0.2651650), wk =   0.0003750
        k(  149) = (  -0.2828427  -0.4242641   0.4242641), wk =   0.0003750
        k(  150) = (  -0.2651650  -0.4065864   0.4065864), wk =   0.0003750
        k(  151) = (  -0.2474874  -0.3889087   0.3889087), wk =   0.0003750
        k(  152) = (  -0.2298097  -0.3712311   0.3712311), wk =   0.0003750
        k(  153) = (  -0.2121320  -0.3535534   0.3535534), wk =   0.0003750
        k(  154) = (  -0.1944544  -0.3358757   0.3358757), wk =   0.0003750
        k(  155) = (  -0.1767767  -0.3181981   0.3181981), wk =   0.0003750
        k(  156) = (  -0.1590990  -0.3005204   0.3005204), wk =   0.0003750
        k(  157) = (  -0.1414214  -0.2828427   0.2828427), wk =   0.0003750
        k(  158) = (  -0.1237437  -0.2651650   0.2651650), wk =   0.0003750
        k(  159) = (  -0.1060660  -0.2474874   0.2474874), wk =   0.0003750
        k(  160) = (  -0.0883883  -0.2298097   0.2298097), wk =   0.0003750
        k(  161) = (  -0.0707107  -0.2121320   0.2121320), wk =   0.0003750
        k(  162) = (  -0.0530330  -0.1944544   0.1944544), wk =   0.0003750
        k(  163) = (  -0.0353553  -0.1767767   0.1767767), wk =   0.0003750
        k(  164) = (  -0.0176777  -0.1590990   0.1590990), wk =   0.0003750
        k(  165) = (   0.0000000  -0.1414214   0.1414214), wk =   0.0001875
        k(  166) = (   0.1767767   0.0000000   0.0000000), wk =   0.0000937
        k(  167) = (   0.1944544   0.0176777  -0.0176777), wk =   0.0003750
        k(  168) = (   0.2121320   0.0353553  -0.0353553), wk =   0.0003750
        k(  169) = (   0.2298097   0.0530330  -0.0530330), wk =   0.0003750
        k(  170) = (   0.2474874   0.0707107  -0.0707107), wk =   0.0003750
        k(  171) = (   0.2651650   0.0883883  -0.0883883), wk =   0.0003750
        k(  172) = (   0.2828427   0.1060660  -0.1060660), wk =   0.0003750
        k(  173) = (   0.3005204   0.1237437  -0.1237437), wk =   0.0003750
        k(  174) = (   0.3181981   0.1414214  -0.1414214), wk =   0.0003750
        k(  175) = (   0.3358757   0.1590990  -0.1590990), wk =   0.0003750
        k(  176) = (   0.3535534   0.1767767  -0.1767767), wk =   0.0003750
        k(  177) = (   0.3712311   0.1944544  -0.1944544), wk =   0.0003750
        k(  178) = (   0.3889087   0.2121320  -0.2121320), wk =   0.0003750
        k(  179) = (   0.4065864   0.2298097  -0.2298097), wk =   0.0003750
        k(  180) = (   0.4242641   0.2474874  -0.2474874), wk =   0.0003750
        k(  181) = (  -0.2651650  -0.4419417   0.4419417), wk =   0.0003750
        k(  182) = (  -0.2474874  -0.4242641   0.4242641), wk =   0.0003750
        k(  183) = (  -0.2298097  -0.4065864   0.4065864), wk =   0.0003750
        k(  184) = (  -0.2121320  -0.3889087   0.3889087), wk =   0.0003750
        k(  185) = (  -0.1944544  -0.3712311   0.3712311), wk =   0.0003750
        k(  186) = (  -0.1767767  -0.3535534   0.3535534), wk =   0.0003750
        k(  187) = (  -0.1590990  -0.3358757   0.3358757), wk =   0.0003750
        k(  188) = (  -0.1414214  -0.3181981   0.3181981), wk =   0.0003750
        k(  189) = (  -0.1237437  -0.3005204   0.3005204), wk =   0.0003750
        k(  190) = (  -0.1060660  -0.2828427   0.2828427), wk =   0.0003750
        k(  191) = (  -0.0883883  -0.2651650   0.2651650), wk =   0.0003750
        k(  192) = (  -0.0707107  -0.2474874   0.2474874), wk =   0.0003750
        k(  193) = (  -0.0530330  -0.2298097   0.2298097), wk =   0.0003750
        k(  194) = (  -0.0353553  -0.2121320   0.2121320), wk =   0.0003750
        k(  195) = (  -0.0176777  -0.1944544   0.1944544), wk =   0.0003750
        k(  196) = (   0.0000000  -0.1767767   0.1767767), wk =   0.0001875
        k(  197) = (   0.2121320   0.0000000   0.0000000), wk =   0.0000937
        k(  198) = (   0.2298097   0.0176777  -0.0176777), wk =   0.0003750
        k(  199) = (   0.2474874   0.0353553  -0.0353553), wk =   0.0003750
        k(  200) = (   0.2651650   0.0530330  -0.0530330), wk =   0.0003750
        k(  201) = (   0.2828427   0.0707107  -0.0707107), wk =   0.0003750
        k(  202) = (   0.3005204   0.0883883  -0.0883883), wk =   0.0003750
        k(  203) = (   0.3181981   0.1060660  -0.1060660), wk =   0.0003750
        k(  204) = (   0.3358757   0.1237437  -0.1237437), wk =   0.0003750
        k(  205) = (   0.3535534   0.1414214  -0.1414214), wk =   0.0003750
        k(  206) = (   0.3712311   0.1590990  -0.1590990), wk =   0.0003750
        k(  207) = (   0.3889087   0.1767767  -0.1767767), wk =   0.0003750
        k(  208) = (   0.4065864   0.1944544  -0.1944544), wk =   0.0003750
        k(  209) = (   0.4242641   0.2121320  -0.2121320), wk =   0.0003750
        k(  210) = (   0.4419417   0.2298097  -0.2298097), wk =   0.0003750
        k(  211) = (  -0.2474874  -0.4596194   0.4596194), wk =   0.0003750
        k(  212) = (  -0.2298097  -0.4419417   0.4419417), wk =   0.0003750
        k(  213) = (  -0.2121320  -0.4242641   0.4242641), wk =   0.0003750
        k(  214) = (  -0.1944544  -0.4065864   0.4065864), wk =   0.0003750
        k(  215) = (  -0.1767767  -0.3889087   0.3889087), wk =   0.0003750
        k(  216) = (  -0.1590990  -0.3712311   0.3712311), wk =   0.0003750
        k(  217) = (  -0.1414214  -0.3535534   0.3535534), wk =   0.0003750
        k(  218) = (  -0.1237437  -0.3358757   0.3358757), wk =   0.0003750
        k(  219) = (  -0.1060660  -0.3181981   0.3181981), wk =   0.0003750
        k(  220) = (  -0.0883883  -0.3005204   0.3005204), wk =   0.0003750
        k(  221) = (  -0.0707107  -0.2828427   0.2828427), wk =   0.0003750
        k(  222) = (  -0.0530330  -0.2651650   0.2651650), wk =   0.0003750
        k(  223) = (  -0.0353553  -0.2474874   0.2474874), wk =   0.0003750
        k(  224) = (  -0.0176777  -0.2298097   0.2298097), wk =   0.0003750
        k(  225) = (  -0.0000000  -0.2121320   0.2121320), wk =   0.0001875
        k(  226) = (   0.2474874   0.0000000   0.0000000), wk =   0.0000937
        k(  227) = (   0.2651650   0.0176777  -0.0176777), wk =   0.0003750
        k(  228) = (   0.2828427   0.0353553  -0.0353553), wk =   0.0003750
        k(  229) = (   0.3005204   0.0530330  -0.0530330), wk =   0.0003750
        k(  230) = (   0.3181981   0.0707107  -0.0707107), wk =   0.0003750
        k(  231) = (   0.3358757   0.0883883  -0.0883883), wk =   0.0003750
        k(  232) = (   0.3535534   0.1060660  -0.1060660), wk =   0.0003750
        k(  233) = (   0.3712311   0.1237437  -0.1237437), wk =   0.0003750
        k(  234) = (   0.3889087   0.1414214  -0.1414214), wk =   0.0003750
        k(  235) = (   0.4065864   0.1590990  -0.1590990), wk =   0.0003750
        k(  236) = (   0.4242641   0.1767767  -0.1767767), wk =   0.0003750
        k(  237) = (   0.4419417   0.1944544  -0.1944544), wk =   0.0003750
        k(  238) = (   0.4596194   0.2121320  -0.2121320), wk =   0.0003750
        k(  239) = (  -0.2298097  -0.4772971   0.4772971), wk =   0.0003750
        k(  240) = (  -0.2121320  -0.4596194   0.4596194), wk =   0.0003750
        k(  241) = (  -0.1944544  -0.4419417   0.4419417), wk =   0.0003750
        k(  242) = (  -0.1767767  -0.4242641   0.4242641), wk =   0.0003750
        k(  243) = (  -0.1590990  -0.4065864   0.4065864), wk =   0.0003750
        k(  244) = (  -0.1414214  -0.3889087   0.3889087), wk =   0.0003750
        k(  245) = (  -0.1237437  -0.3712311   0.3712311), wk =   0.0003750
        k(  246) = (  -0.1060660  -0.3535534   0.3535534), wk =   0.0003750
        k(  247) = (  -0.0883883  -0.3358757   0.3358757), wk =   0.0003750
        k(  248) = (  -0.0707107  -0.3181981   0.3181981), wk =   0.0003750
        k(  249) = (  -0.0530330  -0.3005204   0.3005204), wk =   0.0003750
        k(  250) = (  -0.0353553  -0.2828427   0.2828427), wk =   0.0003750
        k(  251) = (  -0.0176777  -0.2651650   0.2651650), wk =   0.0003750
        k(  252) = (  -0.0000000  -0.2474874   0.2474874), wk =   0.0001875
        k(  253) = (   0.2828427   0.0000000   0.0000000), wk =   0.0000937
        k(  254) = (   0.3005204   0.0176777  -0.0176777), wk =   0.0003750
        k(  255) = (   0.3181981   0.0353553  -0.0353553), wk =   0.0003750
        k(  256) = (   0.3358757   0.0530330  -0.0530330), wk =   0.0003750
        k(  257) = (   0.3535534   0.0707107  -0.0707107), wk =   0.0003750
        k(  258) = (   0.3712311   0.0883883  -0.0883883), wk =   0.0003750
        k(  259) = (   0.3889087   0.1060660  -0.1060660), wk =   0.0003750
        k(  260) = (   0.4065864   0.1237437  -0.1237437), wk =   0.0003750
        k(  261) = (   0.4242641   0.1414214  -0.1414214), wk =   0.0003750
        k(  262) = (   0.4419417   0.1590990  -0.1590990), wk =   0.0003750
        k(  263) = (   0.4596194   0.1767767  -0.1767767), wk =   0.0003750
        k(  264) = (   0.4772971   0.1944544  -0.1944544), wk =   0.0003750
        k(  265) = (  -0.2121320  -0.4949747   0.4949747), wk =   0.0003750
        k(  266) = (  -0.1944544  -0.4772971   0.4772971), wk =   0.0003750
        k(  267) = (  -0.1767767  -0.4596194   0.4596194), wk =   0.0003750
        k(  268) = (  -0.1590990  -0.4419417   0.4419417), wk =   0.0003750
        k(  269) = (  -0.1414214  -0.4242641   0.4242641), wk =   0.0003750
        k(  270) = (  -0.1237437  -0.4065864   0.4065864), wk =   0.0003750
        k(  271) = (  -0.1060660  -0.3889087   0.3889087), wk =   0.0003750
        k(  272) = (  -0.0883883  -0.3712311   0.3712311), wk =   0.0003750
        k(  273) = (  -0.0707107  -0.3535534   0.3535534), wk =   0.0003750
        k(  274) = (  -0.0530330  -0.3358757   0.3358757), wk =   0.0003750
        k(  275) = (  -0.0353553  -0.3181981   0.3181981), wk =   0.0003750
        k(  276) = (  -0.0176777  -0.3005204   0.3005204), wk =   0.0003750
        k(  277) = (   0.0000000  -0.2828427   0.2828427), wk =   0.0001875
        k(  278) = (   0.3181981   0.0000000   0.0000000), wk =   0.0000937
        k(  279) = (   0.3358757   0.0176777  -0.0176777), wk =   0.0003750
        k(  280) = (   0.3535534   0.0353553  -0.0353553), wk =   0.0003750
        k(  281) = (   0.3712311   0.0530330  -0.0530330), wk =   0.0003750
        k(  282) = (   0.3889087   0.0707107  -0.0707107), wk =   0.0003750
        k(  283) = (   0.4065864   0.0883883  -0.0883883), wk =   0.0003750
        k(  284) = (   0.4242641   0.1060660  -0.1060660), wk =   0.0003750
        k(  285) = (   0.4419417   0.1237437  -0.1237437), wk =   0.0003750
        k(  286) = (   0.4596194   0.1414214  -0.1414214), wk =   0.0003750
        k(  287) = (   0.4772971   0.1590990  -0.1590990), wk =   0.0003750
        k(  288) = (   0.4949747   0.1767767  -0.1767767), wk =   0.0003750
        k(  289) = (  -0.1944544  -0.5126524   0.5126524), wk =   0.0003750
        k(  290) = (  -0.1767767  -0.4949747   0.4949747), wk =   0.0003750
        k(  291) = (  -0.1590990  -0.4772971   0.4772971), wk =   0.0003750
        k(  292) = (  -0.1414214  -0.4596194   0.4596194), wk =   0.0003750
        k(  293) = (  -0.1237437  -0.4419417   0.4419417), wk =   0.0003750
        k(  294) = (  -0.1060660  -0.4242641   0.4242641), wk =   0.0003750
        k(  295) = (  -0.0883883  -0.4065864   0.4065864), wk =   0.0003750
        k(  296) = (  -0.0707107  -0.3889087   0.3889087), wk =   0.0003750
        k(  297) = (  -0.0530330  -0.3712311   0.3712311), wk =   0.0003750
        k(  298) = (  -0.0353553  -0.3535534   0.3535534), wk =   0.0003750
        k(  299) = (  -0.0176777  -0.3358757   0.3358757), wk =   0.0003750
        k(  300) = (   0.0000000  -0.3181981   0.3181981), wk =   0.0001875
        k(  301) = (   0.3535534   0.0000000   0.0000000), wk =   0.0000937
        k(  302) = (   0.3712311   0.0176777  -0.0176777), wk =   0.0003750
        k(  303) = (   0.3889087   0.0353553  -0.0353553), wk =   0.0003750
        k(  304) = (   0.4065864   0.0530330  -0.0530330), wk =   0.0003750
        k(  305) = (   0.4242641   0.0707107  -0.0707107), wk =   0.0003750
        k(  306) = (   0.4419417   0.0883883  -0.0883883), wk =   0.0003750
        k(  307) = (   0.4596194   0.1060660  -0.1060660), wk =   0.0003750
        k(  308) = (   0.4772971   0.1237437  -0.1237437), wk =   0.0003750
        k(  309) = (   0.4949747   0.1414214  -0.1414214), wk =   0.0003750
        k(  310) = (   0.5126524   0.1590990  -0.1590990), wk =   0.0003750
        k(  311) = (  -0.1767767  -0.5303301   0.5303301), wk =   0.0003750
        k(  312) = (  -0.1590990  -0.5126524   0.5126524), wk =   0.0003750
        k(  313) = (  -0.1414214  -0.4949747   0.4949747), wk =   0.0003750
        k(  314) = (  -0.1237437  -0.4772971   0.4772971), wk =   0.0003750
        k(  315) = (  -0.1060660  -0.4596194   0.4596194), wk =   0.0003750
        k(  316) = (  -0.0883883  -0.4419417   0.4419417), wk =   0.0003750
        k(  317) = (  -0.0707107  -0.4242641   0.4242641), wk =   0.0003750
        k(  318) = (  -0.0530330  -0.4065864   0.4065864), wk =   0.0003750
        k(  319) = (  -0.0353553  -0.3889087   0.3889087), wk =   0.0003750
        k(  320) = (  -0.0176777  -0.3712311   0.3712311), wk =   0.0003750
        k(  321) = (   0.0000000  -0.3535534   0.3535534), wk =   0.0001875
        k(  322) = (   0.3889087   0.0000000   0.0000000), wk =   0.0000937
        k(  323) = (   0.4065864   0.0176777  -0.0176777), wk =   0.0003750
        k(  324) = (   0.4242641   0.0353553  -0.0353553), wk =   0.0003750
        k(  325) = (   0.4419417   0.0530330  -0.0530330), wk =   0.0003750
        k(  326) = (   0.4596194   0.0707107  -0.0707107), wk =   0.0003750
        k(  327) = (   0.4772971   0.0883883  -0.0883883), wk =   0.0003750
        k(  328) = (   0.4949747   0.1060660  -0.1060660), wk =   0.0003750
        k(  329) = (   0.5126524   0.1237437  -0.1237437), wk =   0.0003750
        k(  330) = (   0.5303301   0.1414214  -0.1414214), wk =   0.0003750
        k(  331) = (  -0.1590990  -0.5480078   0.5480078), wk =   0.0003750
        k(  332) = (  -0.1414214  -0.5303301   0.5303301), wk =   0.0003750
        k(  333) = (  -0.1237437  -0.5126524   0.5126524), wk =   0.0003750
        k(  334) = (  -0.1060660  -0.4949747   0.4949747), wk =   0.0003750
        k(  335) = (  -0.0883883  -0.4772971   0.4772971), wk =   0.0003750
        k(  336) = (  -0.0707107  -0.4596194   0.4596194), wk =   0.0003750
        k(  337) = (  -0.0530330  -0.4419417   0.4419417), wk =   0.0003750
        k(  338) = (  -0.0353553  -0.4242641   0.4242641), wk =   0.0003750
        k(  339) = (  -0.0176777  -0.4065864   0.4065864), wk =   0.0003750
        k(  340) = (   0.0000000  -0.3889087   0.3889087), wk =   0.0001875
        k(  341) = (   0.4242641   0.0000000   0.0000000), wk =   0.0000937
        k(  342) = (   0.4419417   0.0176777  -0.0176777), wk =   0.0003750
        k(  343) = (   0.4596194   0.0353553  -0.0353553), wk =   0.0003750
        k(  344) = (   0.4772971   0.0530330  -0.0530330), wk =   0.0003750
        k(  345) = (   0.4949747   0.0707107  -0.0707107), wk =   0.0003750
        k(  346) = (   0.5126524   0.0883883  -0.0883883), wk =   0.0003750
        k(  347) = (   0.5303301   0.1060660  -0.1060660), wk =   0.0003750
        k(  348) = (   0.5480078   0.1237437  -0.1237437), wk =   0.0003750
        k(  349) = (  -0.1414214  -0.5656854   0.5656854), wk =   0.0003750
        k(  350) = (  -0.1237437  -0.5480078   0.5480078), wk =   0.0003750
        k(  351) = (  -0.1060660  -0.5303301   0.5303301), wk =   0.0003750
        k(  352) = (  -0.0883883  -0.5126524   0.5126524), wk =   0.0003750
        k(  353) = (  -0.0707107  -0.4949747   0.4949747), wk =   0.0003750
        k(  354) = (  -0.0530330  -0.4772971   0.4772971), wk =   0.0003750
        k(  355) = (  -0.0353553  -0.4596194   0.4596194), wk =   0.0003750
        k(  356) = (  -0.0176777  -0.4419417   0.4419417), wk =   0.0003750
        k(  357) = (  -0.0000000  -0.4242641   0.4242641), wk =   0.0001875
        k(  358) = (   0.4596194   0.0000000   0.0000000), wk =   0.0000937
        k(  359) = (   0.4772971   0.0176777  -0.0176777), wk =   0.0003750
        k(  360) = (   0.4949747   0.0353553  -0.0353553), wk =   0.0003750
        k(  361) = (   0.5126524   0.0530330  -0.0530330), wk =   0.0003750
        k(  362) = (   0.5303301   0.0707107  -0.0707107), wk =   0.0003750
        k(  363) = (   0.5480078   0.0883883  -0.0883883), wk =   0.0003750
        k(  364) = (   0.5656854   0.1060660  -0.1060660), wk =   0.0003750
        k(  365) = (  -0.1237437  -0.5833631   0.5833631), wk =   0.0003750
        k(  366) = (  -0.1060660  -0.5656854   0.5656854), wk =   0.0003750
        k(  367) = (  -0.0883883  -0.5480078   0.5480078), wk =   0.0003750
        k(  368) = (  -0.0707107  -0.5303301   0.5303301), wk =   0.0003750
        k(  369) = (  -0.0530330  -0.5126524   0.5126524), wk =   0.0003750
        k(  370) = (  -0.0353553  -0.4949747   0.4949747), wk =   0.0003750
        k(  371) = (  -0.0176777  -0.4772971   0.4772971), wk =   0.0003750
        k(  372) = (   0.0000000  -0.4596194   0.4596194), wk =   0.0001875
        k(  373) = (   0.4949747   0.0000000   0.0000000), wk =   0.0000937
        k(  374) = (   0.5126524   0.0176777  -0.0176777), wk =   0.0003750
        k(  375) = (   0.5303301   0.0353553  -0.0353553), wk =   0.0003750
        k(  376) = (   0.5480078   0.0530330  -0.0530330), wk =   0.0003750
        k(  377) = (   0.5656854   0.0707107  -0.0707107), wk =   0.0003750
        k(  378) = (   0.5833631   0.0883883  -0.0883883), wk =   0.0003750
        k(  379) = (  -0.1060660  -0.6010408   0.6010408), wk =   0.0003750
        k(  380) = (  -0.0883883  -0.5833631   0.5833631), wk =   0.0003750
        k(  381) = (  -0.0707107  -0.5656854   0.5656854), wk =   0.0003750
        k(  382) = (  -0.0530330  -0.5480078   0.5480078), wk =   0.0003750
        k(  383) = (  -0.0353553  -0.5303301   0.5303301), wk =   0.0003750
        k(  384) = (  -0.0176777  -0.5126524   0.5126524), wk =   0.0003750
        k(  385) = (   0.0000000  -0.4949747   0.4949747), wk =   0.0001875
        k(  386) = (   0.5303301   0.0000000   0.0000000), wk =   0.0000937
        k(  387) = (   0.5480078   0.0176777  -0.0176777), wk =   0.0003750
        k(  388) = (   0.5656854   0.0353553  -0.0353553), wk =   0.0003750
        k(  389) = (   0.5833631   0.0530330  -0.0530330), wk =   0.0003750
        k(  390) = (   0.6010408   0.0707107  -0.0707107), wk =   0.0003750
        k(  391) = (  -0.0883883  -0.6187184   0.6187184), wk =   0.0003750
        k(  392) = (  -0.0707107  -0.6010408   0.6010408), wk =   0.0003750
        k(  393) = (  -0.0530330  -0.5833631   0.5833631), wk =   0.0003750
        k(  394) = (  -0.0353553  -0.5656854   0.5656854), wk =   0.0003750
        k(  395) = (  -0.0176777  -0.5480078   0.5480078), wk =   0.0003750
        k(  396) = (   0.0000000  -0.5303301   0.5303301), wk =   0.0001875
        k(  397) = (   0.5656854   0.0000000   0.0000000), wk =   0.0000937
        k(  398) = (   0.5833631   0.0176777  -0.0176777), wk =   0.0003750
        k(  399) = (   0.6010408   0.0353553  -0.0353553), wk =   0.0003750
        k(  400) = (   0.6187184   0.0530330  -0.0530330), wk =   0.0003750
        k(  401) = (  -0.0707107  -0.6363961   0.6363961), wk =   0.0003750
        k(  402) = (  -0.0530330  -0.6187184   0.6187184), wk =   0.0003750
        k(  403) = (  -0.0353553  -0.6010408   0.6010408), wk =   0.0003750
        k(  404) = (  -0.0176777  -0.5833631   0.5833631), wk =   0.0003750
        k(  405) = (   0.0000000  -0.5656854   0.5656854), wk =   0.0001875
        k(  406) = (   0.6010408   0.0000000   0.0000000), wk =   0.0000937
        k(  407) = (   0.6187184   0.0176777  -0.0176777), wk =   0.0003750
        k(  408) = (   0.6363961   0.0353553  -0.0353553), wk =   0.0003750
        k(  409) = (  -0.0530330  -0.6540738   0.6540738), wk =   0.0003750
        k(  410) = (  -0.0353553  -0.6363961   0.6363961), wk =   0.0003750
        k(  411) = (  -0.0176777  -0.6187184   0.6187184), wk =   0.0003750
        k(  412) = (  -0.0000000  -0.6010408   0.6010408), wk =   0.0001875
        k(  413) = (   0.6363961   0.0000000   0.0000000), wk =   0.0000937
        k(  414) = (   0.6540738   0.0176777  -0.0176777), wk =   0.0003750
        k(  415) = (  -0.0353553  -0.6717514   0.6717514), wk =   0.0003750
        k(  416) = (  -0.0176777  -0.6540738   0.6540738), wk =   0.0003750
        k(  417) = (   0.0000000  -0.6363961   0.6363961), wk =   0.0001875
        k(  418) = (   0.6717514   0.0000000   0.0000000), wk =   0.0000937
        k(  419) = (  -0.0176777  -0.6894291   0.6894291), wk =   0.0003750
        k(  420) = (   0.0000000  -0.6717514   0.6717514), wk =   0.0001875
        k(  421) = (  -0.7071068   0.0000000   0.0000000), wk =   0.0000469
        k(  422) = (   0.0707107   0.0353553   0.0000000), wk =   0.0003750
        k(  423) = (   0.0883883   0.0530330  -0.0176777), wk =   0.0007500
        k(  424) = (   0.1060660   0.0707107  -0.0353553), wk =   0.0007500
        k(  425) = (   0.1237437   0.0883883  -0.0530330), wk =   0.0007500
        k(  426) = (   0.1414214   0.1060660  -0.0707107), wk =   0.0007500
        k(  427) = (   0.1590990   0.1237437  -0.0883883), wk =   0.0007500
        k(  428) = (   0.1767767   0.1414214  -0.1060660), wk =   0.0007500
        k(  429) = (   0.1944544   0.1590990  -0.1237437), wk =   0.0007500
        k(  430) = (   0.2121320   0.1767767  -0.1414214), wk =   0.0007500
        k(  431) = (   0.2298097   0.1944544  -0.1590990), wk =   0.0007500
        k(  432) = (   0.2474874   0.2121320  -0.1767767), wk =   0.0007500
        k(  433) = (   0.2651650   0.2298097  -0.1944544), wk =   0.0007500
        k(  434) = (   0.2828427   0.2474874  -0.2121320), wk =   0.0007500
        k(  435) = (   0.3005204   0.2651650  -0.2298097), wk =   0.0007500
        k(  436) = (   0.3181981   0.2828427  -0.2474874), wk =   0.0007500
        k(  437) = (   0.3358757   0.3005204  -0.2651650), wk =   0.0007500
        k(  438) = (   0.3535534   0.3181981  -0.2828427), wk =   0.0007500
        k(  439) = (  -0.3358757  -0.3712311   0.4065864), wk =   0.0007500
        k(  440) = (  -0.3181981  -0.3535534   0.3889087), wk =   0.0003750
        k(  441) = (   0.1060660   0.0353553  -0.0000000), wk =   0.0003750
        k(  442) = (   0.1237437   0.0530330  -0.0176777), wk =   0.0007500
        k(  443) = (   0.1414214   0.0707107  -0.0353553), wk =   0.0007500
        k(  444) = (   0.1590990   0.0883883  -0.0530330), wk =   0.0007500
        k(  445) = (   0.1767767   0.1060660  -0.0707107), wk =   0.0007500
        k(  446) = (   0.1944544   0.1237437  -0.0883883), wk =   0.0007500
        k(  447) = (   0.2121320   0.1414214  -0.1060660), wk =   0.0007500
        k(  448) = (   0.2298097   0.1590990  -0.1237437), wk =   0.0007500
        k(  449) = (   0.2474874   0.1767767  -0.1414214), wk =   0.0007500
        k(  450) = (   0.2651650   0.1944544  -0.1590990), wk =   0.0007500
        k(  451) = (   0.2828427   0.2121320  -0.1767767), wk =   0.0007500
        k(  452) = (   0.3005204   0.2298097  -0.1944544), wk =   0.0007500
        k(  453) = (   0.3181981   0.2474874  -0.2121320), wk =   0.0007500
        k(  454) = (   0.3358757   0.2651650  -0.2298097), wk =   0.0007500
        k(  455) = (   0.3535534   0.2828427  -0.2474874), wk =   0.0007500
        k(  456) = (   0.3712311   0.3005204  -0.2651650), wk =   0.0007500
        k(  457) = (  -0.3181981  -0.3889087   0.4242641), wk =   0.0007500
        k(  458) = (  -0.3005204  -0.3712311   0.4065864), wk =   0.0007500
        k(  459) = (  -0.2828427  -0.3535534   0.3889087), wk =   0.0007500
        k(  460) = (  -0.2651650  -0.3358757   0.3712311), wk =   0.0007500
        k(  461) = (  -0.2474874  -0.3181981   0.3535534), wk =   0.0007500
        k(  462) = (  -0.2298097  -0.3005204   0.3358757), wk =   0.0007500
        k(  463) = (  -0.2121320  -0.2828427   0.3181981), wk =   0.0007500
        k(  464) = (  -0.1944544  -0.2651650   0.3005204), wk =   0.0007500
        k(  465) = (  -0.1767767  -0.2474874   0.2828427), wk =   0.0007500
        k(  466) = (  -0.1590990  -0.2298097   0.2651650), wk =   0.0007500
        k(  467) = (  -0.1414214  -0.2121320   0.2474874), wk =   0.0007500
        k(  468) = (  -0.1237437  -0.1944544   0.2298097), wk =   0.0007500
        k(  469) = (  -0.1060660  -0.1767767   0.2121320), wk =   0.0007500
        k(  470) = (  -0.0883883  -0.1590990   0.1944544), wk =   0.0007500
        k(  471) = (  -0.0707107  -0.1414214   0.1767767), wk =   0.0007500
        k(  472) = (  -0.0530330  -0.1237437   0.1590990), wk =   0.0007500
        k(  473) = (  -0.0353553  -0.1060660   0.1414214), wk =   0.0007500
        k(  474) = (  -0.0176777  -0.0883883   0.1237437), wk =   0.0007500
        k(  475) = (  -0.0000000  -0.0707107   0.1060660), wk =   0.0003750
        k(  476) = (   0.1414214   0.0353553   0.0000000), wk =   0.0003750
        k(  477) = (   0.1590990   0.0530330  -0.0176777), wk =   0.0007500
        k(  478) = (   0.1767767   0.0707107  -0.0353553), wk =   0.0007500
        k(  479) = (   0.1944544   0.0883883  -0.0530330), wk =   0.0007500
        k(  480) = (   0.2121320   0.1060660  -0.0707107), wk =   0.0007500
        k(  481) = (   0.2298097   0.1237437  -0.0883883), wk =   0.0007500
        k(  482) = (   0.2474874   0.1414214  -0.1060660), wk =   0.0007500
        k(  483) = (   0.2651650   0.1590990  -0.1237437), wk =   0.0007500
        k(  484) = (   0.2828427   0.1767767  -0.1414214), wk =   0.0007500
        k(  485) = (   0.3005204   0.1944544  -0.1590990), wk =   0.0007500
        k(  486) = (   0.3181981   0.2121320  -0.1767767), wk =   0.0007500
        k(  487) = (   0.3358757   0.2298097  -0.1944544), wk =   0.0007500
        k(  488) = (   0.3535534   0.2474874  -0.2121320), wk =   0.0007500
        k(  489) = (   0.3712311   0.2651650  -0.2298097), wk =   0.0007500
        k(  490) = (   0.3889087   0.2828427  -0.2474874), wk =   0.0007500
        k(  491) = (  -0.3005204  -0.4065864   0.4419417), wk =   0.0007500
        k(  492) = (  -0.2828427  -0.3889087   0.4242641), wk =   0.0007500
        k(  493) = (  -0.2651650  -0.3712311   0.4065864), wk =   0.0007500
        k(  494) = (  -0.2474874  -0.3535534   0.3889087), wk =   0.0007500
        k(  495) = (  -0.2298097  -0.3358757   0.3712311), wk =   0.0007500
        k(  496) = (  -0.2121320  -0.3181981   0.3535534), wk =   0.0007500
        k(  497) = (  -0.1944544  -0.3005204   0.3358757), wk =   0.0007500
        k(  498) = (  -0.1767767  -0.2828427   0.3181981), wk =   0.0007500
        k(  499) = (  -0.1590990  -0.2651650   0.3005204), wk =   0.0007500
        k(  500) = (  -0.1414214  -0.2474874   0.2828427), wk =   0.0007500
        k(  501) = (  -0.1237437  -0.2298097   0.2651650), wk =   0.0007500
        k(  502) = (  -0.1060660  -0.2121320   0.2474874), wk =   0.0007500
        k(  503) = (  -0.0883883  -0.1944544   0.2298097), wk =   0.0007500
        k(  504) = (  -0.0707107  -0.1767767   0.2121320), wk =   0.0007500
        k(  505) = (  -0.0530330  -0.1590990   0.1944544), wk =   0.0007500
        k(  506) = (  -0.0353553  -0.1414214   0.1767767), wk =   0.0007500
        k(  507) = (  -0.0176777  -0.1237437   0.1590990), wk =   0.0007500
        k(  508) = (   0.0000000  -0.1060660   0.1414214), wk =   0.0003750
        k(  509) = (   0.1767767   0.0353553   0.0000000), wk =   0.0003750
        k(  510) = (   0.1944544   0.0530330  -0.0176777), wk =   0.0007500
        k(  511) = (   0.2121320   0.0707107  -0.0353553), wk =   0.0007500
        k(  512) = (   0.2298097   0.0883883  -0.0530330), wk =   0.0007500
        k(  513) = (   0.2474874   0.1060660  -0.0707107), wk =   0.0007500
        k(  514) = (   0.2651650   0.1237437  -0.0883883), wk =   0.0007500
        k(  515) = (   0.2828427   0.1414214  -0.1060660), wk =   0.0007500
        k(  516) = (   0.3005204   0.1590990  -0.1237437), wk =   0.0007500
        k(  517) = (   0.3181981   0.1767767  -0.1414214), wk =   0.0007500
        k(  518) = (   0.3358757   0.1944544  -0.1590990), wk =   0.0007500
        k(  519) = (   0.3535534   0.2121320  -0.1767767), wk =   0.0007500
        k(  520) = (   0.3712311   0.2298097  -0.1944544), wk =   0.0007500
        k(  521) = (   0.3889087   0.2474874  -0.2121320), wk =   0.0007500
        k(  522) = (   0.4065864   0.2651650  -0.2298097), wk =   0.0007500
        k(  523) = (  -0.2828427  -0.4242641   0.4596194), wk =   0.0007500
        k(  524) = (  -0.2651650  -0.4065864   0.4419417), wk =   0.0007500
        k(  525) = (  -0.2474874  -0.3889087   0.4242641), wk =   0.0007500
        k(  526) = (  -0.2298097  -0.3712311   0.4065864), wk =   0.0007500
        k(  527) = (  -0.2121320  -0.3535534   0.3889087), wk =   0.0007500
        k(  528) = (  -0.1944544  -0.3358757   0.3712311), wk =   0.0007500
        k(  529) = (  -0.1767767  -0.3181981   0.3535534), wk =   0.0007500
        k(  530) = (  -0.1590990  -0.3005204   0.3358757), wk =   0.0007500
        k(  531) = (  -0.1414214  -0.2828427   0.3181981), wk =   0.0007500
        k(  532) = (  -0.1237437  -0.2651650   0.3005204), wk =   0.0007500
        k(  533) = (  -0.1060660  -0.2474874   0.2828427), wk =   0.0007500
        k(  534) = (  -0.0883883  -0.2298097   0.2651650), wk =   0.0007500
        k(  535) = (  -0.0707107  -0.2121320   0.2474874), wk =   0.0007500
        k(  536) = (  -0.0530330  -0.1944544   0.2298097), wk =   0.0007500
        k(  537) = (  -0.0353553  -0.1767767   0.2121320), wk =   0.0007500
        k(  538) = (  -0.0176777  -0.1590990   0.1944544), wk =   0.0007500
        k(  539) = (   0.0000000  -0.1414214   0.1767767), wk =   0.0003750
        k(  540) = (   0.2121320   0.0353553   0.0000000), wk =   0.0003750
        k(  541) = (   0.2298097   0.0530330  -0.0176777), wk =   0.0007500
        k(  542) = (   0.2474874   0.0707107  -0.0353553), wk =   0.0007500
        k(  543) = (   0.2651650   0.0883883  -0.0530330), wk =   0.0007500
        k(  544) = (   0.2828427   0.1060660  -0.0707107), wk =   0.0007500
        k(  545) = (   0.3005204   0.1237437  -0.0883883), wk =   0.0007500
        k(  546) = (   0.3181981   0.1414214  -0.1060660), wk =   0.0007500
        k(  547) = (   0.3358757   0.1590990  -0.1237437), wk =   0.0007500
        k(  548) = (   0.3535534   0.1767767  -0.1414214), wk =   0.0007500
        k(  549) = (   0.3712311   0.1944544  -0.1590990), wk =   0.0007500
        k(  550) = (   0.3889087   0.2121320  -0.1767767), wk =   0.0007500
        k(  551) = (   0.4065864   0.2298097  -0.1944544), wk =   0.0007500
        k(  552) = (   0.4242641   0.2474874  -0.2121320), wk =   0.0007500
        k(  553) = (  -0.2651650  -0.4419417   0.4772971), wk =   0.0007500
        k(  554) = (  -0.2474874  -0.4242641   0.4596194), wk =   0.0007500
        k(  555) = (  -0.2298097  -0.4065864   0.4419417), wk =   0.0007500
        k(  556) = (  -0.2121320  -0.3889087   0.4242641), wk =   0.0007500
        k(  557) = (  -0.1944544  -0.3712311   0.4065864), wk =   0.0007500
        k(  558) = (  -0.1767767  -0.3535534   0.3889087), wk =   0.0007500
        k(  559) = (  -0.1590990  -0.3358757   0.3712311), wk =   0.0007500
        k(  560) = (  -0.1414214  -0.3181981   0.3535534), wk =   0.0007500
        k(  561) = (  -0.1237437  -0.3005204   0.3358757), wk =   0.0007500
        k(  562) = (  -0.1060660  -0.2828427   0.3181981), wk =   0.0007500
        k(  563) = (  -0.0883883  -0.2651650   0.3005204), wk =   0.0007500
        k(  564) = (  -0.0707107  -0.2474874   0.2828427), wk =   0.0007500
        k(  565) = (  -0.0530330  -0.2298097   0.2651650), wk =   0.0007500
        k(  566) = (  -0.0353553  -0.2121320   0.2474874), wk =   0.0007500
        k(  567) = (  -0.0176777  -0.1944544   0.2298097), wk =   0.0007500
        k(  568) = (  -0.0000000  -0.1767767   0.2121320), wk =   0.0003750
        k(  569) = (   0.2474874   0.0353553  -0.0000000), wk =   0.0003750
        k(  570) = (   0.2651650   0.0530330  -0.0176777), wk =   0.0007500
        k(  571) = (   0.2828427   0.0707107  -0.0353553), wk =   0.0007500
        k(  572) = (   0.3005204   0.0883883  -0.0530330), wk =   0.0007500
        k(  573) = (   0.3181981   0.1060660  -0.0707107), wk =   0.0007500
        k(  574) = (   0.3358757   0.1237437  -0.0883883), wk =   0.0007500
        k(  575) = (   0.3535534   0.1414214  -0.1060660), wk =   0.0007500
        k(  576) = (   0.3712311   0.1590990  -0.1237437), wk =   0.0007500
        k(  577) = (   0.3889087   0.1767767  -0.1414214), wk =   0.0007500
        k(  578) = (   0.4065864   0.1944544  -0.1590990), wk =   0.0007500
        k(  579) = (   0.4242641   0.2121320  -0.1767767), wk =   0.0007500
        k(  580) = (   0.4419417   0.2298097  -0.1944544), wk =   0.0007500
        k(  581) = (  -0.2474874  -0.4596194   0.4949747), wk =   0.0007500
        k(  582) = (  -0.2298097  -0.4419417   0.4772971), wk =   0.0007500
        k(  583) = (  -0.2121320  -0.4242641   0.4596194), wk =   0.0007500
        k(  584) = (  -0.1944544  -0.4065864   0.4419417), wk =   0.0007500
        k(  585) = (  -0.1767767  -0.3889087   0.4242641), wk =   0.0007500
        k(  586) = (  -0.1590990  -0.3712311   0.4065864), wk =   0.0007500
        k(  587) = (  -0.1414214  -0.3535534   0.3889087), wk =   0.0007500
        k(  588) = (  -0.1237437  -0.3358757   0.3712311), wk =   0.0007500
        k(  589) = (  -0.1060660  -0.3181981   0.3535534), wk =   0.0007500
        k(  590) = (  -0.0883883  -0.3005204   0.3358757), wk =   0.0007500
        k(  591) = (  -0.0707107  -0.2828427   0.3181981), wk =   0.0007500
        k(  592) = (  -0.0530330  -0.2651650   0.3005204), wk =   0.0007500
        k(  593) = (  -0.0353553  -0.2474874   0.2828427), wk =   0.0007500
        k(  594) = (  -0.0176777  -0.2298097   0.2651650), wk =   0.0007500
        k(  595) = (  -0.0000000  -0.2121320   0.2474874), wk =   0.0003750
        k(  596) = (   0.2828427   0.0353553   0.0000000), wk =   0.0003750
        k(  597) = (   0.3005204   0.0530330  -0.0176777), wk =   0.0007500
        k(  598) = (   0.3181981   0.0707107  -0.0353553), wk =   0.0007500
        k(  599) = (   0.3358757   0.0883883  -0.0530330), wk =   0.0007500
        k(  600) = (   0.3535534   0.1060660  -0.0707107), wk =   0.0007500
        k(  601) = (   0.3712311   0.1237437  -0.0883883), wk =   0.0007500
        k(  602) = (   0.3889087   0.1414214  -0.1060660), wk =   0.0007500
        k(  603) = (   0.4065864   0.1590990  -0.1237437), wk =   0.0007500
        k(  604) = (   0.4242641   0.1767767  -0.1414214), wk =   0.0007500
        k(  605) = (   0.4419417   0.1944544  -0.1590990), wk =   0.0007500
        k(  606) = (   0.4596194   0.2121320  -0.1767767), wk =   0.0007500
        k(  607) = (  -0.2298097  -0.4772971   0.5126524), wk =   0.0007500
        k(  608) = (  -0.2121320  -0.4596194   0.4949747), wk =   0.0007500
        k(  609) = (  -0.1944544  -0.4419417   0.4772971), wk =   0.0007500
        k(  610) = (  -0.1767767  -0.4242641   0.4596194), wk =   0.0007500
        k(  611) = (  -0.1590990  -0.4065864   0.4419417), wk =   0.0007500
        k(  612) = (  -0.1414214  -0.3889087   0.4242641), wk =   0.0007500
        k(  613) = (  -0.1237437  -0.3712311   0.4065864), wk =   0.0007500
        k(  614) = (  -0.1060660  -0.3535534   0.3889087), wk =   0.0007500
        k(  615) = (  -0.0883883  -0.3358757   0.3712311), wk =   0.0007500
        k(  616) = (  -0.0707107  -0.3181981   0.3535534), wk =   0.0007500
        k(  617) = (  -0.0530330  -0.3005204   0.3358757), wk =   0.0007500
        k(  618) = (  -0.0353553  -0.2828427   0.3181981), wk =   0.0007500
        k(  619) = (  -0.0176777  -0.2651650   0.3005204), wk =   0.0007500
        k(  620) = (  -0.0000000  -0.2474874   0.2828427), wk =   0.0003750
        k(  621) = (   0.3181981   0.0353553   0.0000000), wk =   0.0003750
        k(  622) = (   0.3358757   0.0530330  -0.0176777), wk =   0.0007500
        k(  623) = (   0.3535534   0.0707107  -0.0353553), wk =   0.0007500
        k(  624) = (   0.3712311   0.0883883  -0.0530330), wk =   0.0007500
        k(  625) = (   0.3889087   0.1060660  -0.0707107), wk =   0.0007500
        k(  626) = (   0.4065864   0.1237437  -0.0883883), wk =   0.0007500
        k(  627) = (   0.4242641   0.1414214  -0.1060660), wk =   0.0007500
        k(  628) = (   0.4419417   0.1590990  -0.1237437), wk =   0.0007500
        k(  629) = (   0.4596194   0.1767767  -0.1414214), wk =   0.0007500
        k(  630) = (   0.4772971   0.1944544  -0.1590990), wk =   0.0007500
        k(  631) = (  -0.2121320  -0.4949747   0.5303301), wk =   0.0007500
        k(  632) = (  -0.1944544  -0.4772971   0.5126524), wk =   0.0007500
        k(  633) = (  -0.1767767  -0.4596194   0.4949747), wk =   0.0007500
        k(  634) = (  -0.1590990  -0.4419417   0.4772971), wk =   0.0007500
        k(  635) = (  -0.1414214  -0.4242641   0.4596194), wk =   0.0007500
        k(  636) = (  -0.1237437  -0.4065864   0.4419417), wk =   0.0007500
        k(  637) = (  -0.1060660  -0.3889087   0.4242641), wk =   0.0007500
        k(  638) = (  -0.0883883  -0.3712311   0.4065864), wk =   0.0007500
        k(  639) = (  -0.0707107  -0.3535534   0.3889087), wk =   0.0007500
        k(  640) = (  -0.0530330  -0.3358757   0.3712311), wk =   0.0007500
        k(  641) = (  -0.0353553  -0.3181981   0.3535534), wk =   0.0007500
        k(  642) = (  -0.0176777  -0.3005204   0.3358757), wk =   0.0007500
        k(  643) = (   0.0000000  -0.2828427   0.3181981), wk =   0.0003750
        k(  644) = (   0.3535534   0.0353553  -0.0000000), wk =   0.0003750
        k(  645) = (   0.3712311   0.0530330  -0.0176777), wk =   0.0007500
        k(  646) = (   0.3889087   0.0707107  -0.0353553), wk =   0.0007500
        k(  647) = (   0.4065864   0.0883883  -0.0530330), wk =   0.0007500
        k(  648) = (   0.4242641   0.1060660  -0.0707107), wk =   0.0007500
        k(  649) = (   0.4419417   0.1237437  -0.0883883), wk =   0.0007500
        k(  650) = (   0.4596194   0.1414214  -0.1060660), wk =   0.0007500
        k(  651) = (   0.4772971   0.1590990  -0.1237437), wk =   0.0007500
        k(  652) = (   0.4949747   0.1767767  -0.1414214), wk =   0.0007500
        k(  653) = (  -0.1944544  -0.5126524   0.5480078), wk =   0.0007500
        k(  654) = (  -0.1767767  -0.4949747   0.5303301), wk =   0.0007500
        k(  655) = (  -0.1590990  -0.4772971   0.5126524), wk =   0.0007500
        k(  656) = (  -0.1414214  -0.4596194   0.4949747), wk =   0.0007500
        k(  657) = (  -0.1237437  -0.4419417   0.4772971), wk =   0.0007500
        k(  658) = (  -0.1060660  -0.4242641   0.4596194), wk =   0.0007500
        k(  659) = (  -0.0883883  -0.4065864   0.4419417), wk =   0.0007500
        k(  660) = (  -0.0707107  -0.3889087   0.4242641), wk =   0.0007500
        k(  661) = (  -0.0530330  -0.3712311   0.4065864), wk =   0.0007500
        k(  662) = (  -0.0353553  -0.3535534   0.3889087), wk =   0.0007500
        k(  663) = (  -0.0176777  -0.3358757   0.3712311), wk =   0.0007500
        k(  664) = (   0.0000000  -0.3181981   0.3535534), wk =   0.0003750
        k(  665) = (   0.3889087   0.0353553   0.0000000), wk =   0.0003750
        k(  666) = (   0.4065864   0.0530330  -0.0176777), wk =   0.0007500
        k(  667) = (   0.4242641   0.0707107  -0.0353553), wk =   0.0007500
        k(  668) = (   0.4419417   0.0883883  -0.0530330), wk =   0.0007500
        k(  669) = (   0.4596194   0.1060660  -0.0707107), wk =   0.0007500
        k(  670) = (   0.4772971   0.1237437  -0.0883883), wk =   0.0007500
        k(  671) = (   0.4949747   0.1414214  -0.1060660), wk =   0.0007500
        k(  672) = (   0.5126524   0.1590990  -0.1237437), wk =   0.0007500
        k(  673) = (  -0.1767767  -0.5303301   0.5656854), wk =   0.0007500
        k(  674) = (  -0.1590990  -0.5126524   0.5480078), wk =   0.0007500
        k(  675) = (  -0.1414214  -0.4949747   0.5303301), wk =   0.0007500
        k(  676) = (  -0.1237437  -0.4772971   0.5126524), wk =   0.0007500
        k(  677) = (  -0.1060660  -0.4596194   0.4949747), wk =   0.0007500
        k(  678) = (  -0.0883883  -0.4419417   0.4772971), wk =   0.0007500
        k(  679) = (  -0.0707107  -0.4242641   0.4596194), wk =   0.0007500
        k(  680) = (  -0.0530330  -0.4065864   0.4419417), wk =   0.0007500
        k(  681) = (  -0.0353553  -0.3889087   0.4242641), wk =   0.0007500
        k(  682) = (  -0.0176777  -0.3712311   0.4065864), wk =   0.0007500
        k(  683) = (   0.0000000  -0.3535534   0.3889087), wk =   0.0003750
        k(  684) = (   0.4242641   0.0353553  -0.0000000), wk =   0.0003750
        k(  685) = (   0.4419417   0.0530330  -0.0176777), wk =   0.0007500
        k(  686) = (   0.4596194   0.0707107  -0.0353553), wk =   0.0007500
        k(  687) = (   0.4772971   0.0883883  -0.0530330), wk =   0.0007500
        k(  688) = (   0.4949747   0.1060660  -0.0707107), wk =   0.0007500
        k(  689) = (   0.5126524   0.1237437  -0.0883883), wk =   0.0007500
        k(  690) = (   0.5303301   0.1414214  -0.1060660), wk =   0.0007500
        k(  691) = (  -0.1590990  -0.5480078   0.5833631), wk =   0.0007500
        k(  692) = (  -0.1414214  -0.5303301   0.5656854), wk =   0.0007500
        k(  693) = (  -0.1237437  -0.5126524   0.5480078), wk =   0.0007500
        k(  694) = (  -0.1060660  -0.4949747   0.5303301), wk =   0.0007500
        k(  695) = (  -0.0883883  -0.4772971   0.5126524), wk =   0.0007500
        k(  696) = (  -0.0707107  -0.4596194   0.4949747), wk =   0.0007500
        k(  697) = (  -0.0530330  -0.4419417   0.4772971), wk =   0.0007500
        k(  698) = (  -0.0353553  -0.4242641   0.4596194), wk =   0.0007500
        k(  699) = (  -0.0176777  -0.4065864   0.4419417), wk =   0.0007500
[...]

     occupation numbers 
     1.0000   1.0000   1.0000   1.0000   1.0000   1.0000   1.0000   1.0000
     1.0000   1.0000   1.0000   1.0000   1.0000   1.0000   1.0000   1.0000
     1.0000   1.0000   1.0000   1.0000   1.0000   1.0000   1.0000   1.0000
     1.0000   1.0000   1.0000   1.0000   0.0000   0.0000   0.0000   0.0000
     0.0000   0.0000   0.0000   0.0000

          k =-0.0530-0.3712 0.6541 (  2020 PWs)   bands (ev):

   -14.5550 -14.5550 -14.5232 -14.5232 -14.4855 -14.4855 -14.4394 -14.4394
   -13.5632 -13.5632 -13.5130 -13.5130 -13.4589 -13.4589 -13.4300 -13.4300
   -13.3264 -13.3264 -13.2737 -13.2737  -0.1714  -0.1714   0.5812   0.5812
     4.4230   4.4230   4.9509   4.9509  10.3735  10.3735  11.0222  11.0222
    11.6538  11.6538  12.1331  12.1331

     occupation numbers 
     1.0000   1.0000   1.0000   1.0000   1.0000   1.0000   1.0000   1.0000
     1.0000   1.0000   1.0000   1.0000   1.0000   1.0000   1.0000   1.0000
     1.0000   1.0000   1.0000   1.0000   1.0000   1.0000   1.0000   1.0000
     1.0000   1.0000   1.0000   1.0000   0.0000   0.0000   0.0000   0.0000
     0.0000   0.0000   0.0000   0.0000

          k =-0.0354-0.3536 0.6364 (  2019 PWs)   bands (ev):

   -14.5549 -14.5549 -14.5230 -14.5230 -14.4854 -14.4854 -14.4392 -14.4392
   -13.5633 -13.5633 -13.5128 -13.5128 -13.4591 -13.4591 -13.4294 -13.4294
   -13.3263 -13.3263 -13.2738 -13.2738  -0.1923  -0.1923   0.6035   0.6035
     4.4118   4.4118   4.9687   4.9687  10.3921  10.3921  11.0289  11.0289
    11.6668  11.6668  12.0997  12.0997

     occupation numbers 
     1.0000   1.0000   1.0000   1.0000   1.0000   1.0000   1.0000   1.0000
     1.0000   1.0000   1.0000   1.0000   1.0000   1.0000   1.0000   1.0000
     1.0000   1.0000   1.0000   1.0000   1.0000   1.0000   1.0000   1.0000
     1.0000   1.0000   1.0000   1.0000   0.0000   0.0000   0.0000   0.0000
     0.0000   0.0000   0.0000   0.0000

          k =-0.0177-0.3359 0.6187 (  2026 PWs)   bands (ev):

   -14.5562 -14.5562 -14.5241 -14.5241 -14.4868 -14.4868 -14.4401 -14.4401
   -13.5640 -13.5640 -13.5148 -13.5148 -13.4617 -13.4617 -13.4285 -13.4285
   -13.3270 -13.3270 -13.2753 -13.2753  -0.2703  -0.2703   0.6856   0.6856
     4.4099   4.4099   5.0126   5.0126  10.3983  10.3983  10.9556  10.9556
    11.4538  11.4538  12.4180  12.4180

     occupation numbers 
     1.0000   1.0000   1.0000   1.0000   1.0000   1.0000   1.0000   1.0000
     1.0000   1.0000   1.0000   1.0000   1.0000   1.0000   1.0000   1.0000
     1.0000   1.0000   1.0000   1.0000   1.0000   1.0000   1.0000   1.0000
     1.0000   1.0000   1.0000   1.0000   0.0000   0.0000   0.0000   0.0000
     0.0000   0.0000   0.0000   0.0000

          k = 0.0000-0.3182 0.6010 (  2030 PWs)   bands (ev):

   -14.5572 -14.5572 -14.5247 -14.5247 -14.4877 -14.4877 -14.4406 -14.4406
   -13.5645 -13.5645 -13.5168 -13.5168 -13.4640 -13.4640 -13.4259 -13.4259
   -13.3271 -13.3271 -13.2771 -13.2771  -0.3805  -0.3805   0.8023   0.8023
     4.4207   4.4207   5.0789   5.0789  10.3720  10.3720  10.7929  10.7929
    11.3450  11.3450  12.7804  12.7805

     occupation numbers 
     1.0000   1.0000   1.0000   1.0000   1.0000   1.0000   1.0000   1.0000
     1.0000   1.0000   1.0000   1.0000   1.0000   1.0000   1.0000   1.0000
     1.0000   1.0000   1.0000   1.0000   1.0000   1.0000   1.0000   1.0000
     1.0000   1.0000   1.0000   1.0000   0.0000   0.0000   0.0000   0.0000
     0.0000   0.0000   0.0000   0.0000

          k =-0.0707-0.4243 0.7071 (  2032 PWs)   bands (ev):

   -14.5557 -14.5557 -14.5259 -14.5259 -14.4865 -14.4865 -14.4421 -14.4421
   -13.5645 -13.5645 -13.5160 -13.5160 -13.4612 -13.4612 -13.4312 -13.4312
   -13.3270 -13.3270 -13.2772 -13.2772  -0.2252  -0.2252   0.6340   0.6340
     4.5196   4.5196   4.9223   4.9223  10.2351  10.2351  10.4498  10.4498
    11.6901  11.6901  12.8934  12.8934

     occupation numbers 
     1.0000   1.0000   1.0000   1.0000   1.0000   1.0000   1.0000   1.0000
     1.0000   1.0000   1.0000   1.0000   1.0000   1.0000   1.0000   1.0000
     1.0000   1.0000   1.0000   1.0000   1.0000   1.0000   1.0000   1.0000
     1.0000   1.0000   1.0000   1.0000   0.0000   0.0000   0.0000   0.0000
     0.0000   0.0000   0.0000   0.0000

          k =-0.0530-0.4066 0.6894 (  2024 PWs)   bands (ev):

   -14.5546 -14.5546 -14.5245 -14.5245 -14.4855 -14.4855 -14.4406 -14.4406
   -13.5632 -13.5632 -13.5138 -13.5138 -13.4583 -13.4583 -13.4325 -13.4325
   -13.3264 -13.3264 -13.2748 -13.2748  -0.1155  -0.1155   0.5222   0.5222
     4.4997   4.4997   4.8686   4.8686  10.3315  10.3315  10.7009  10.7009
    11.6415  11.6415  12.5165  12.5165

     occupation numbers 
     1.0000   1.0000   1.0000   1.0000   1.0000   1.0000   1.0000   1.0000
     1.0000   1.0000   1.0000   1.0000   1.0000   1.0000   1.0000   1.0000
     1.0000   1.0000   1.0000   1.0000   1.0000   1.0000   1.0000   1.0000
     1.0000   1.0000   1.0000   1.0000   0.0000   0.0000   0.0000   0.0000
     0.0000   0.0000   0.0000   0.0000

          k =-0.0354-0.3889 0.6718 (  2017 PWs)   bands (ev):

   -14.5540 -14.5540 -14.5234 -14.5234 -14.4843 -14.4843 -14.4392 -14.4392
   -13.5627 -13.5627 -13.5121 -13.5121 -13.4562 -13.4562 -13.4328 -13.4328
   -13.3257 -13.3257 -13.2727 -13.2727  -0.0511  -0.0511   0.4579   0.4579
     4.4737   4.4737   4.8546   4.8546  10.3750  10.3750  10.9822  10.9822
    11.6322  11.6322  12.1552  12.1552

     occupation numbers 
     1.0000   1.0000   1.0000   1.0000   1.0000   1.0000   1.0000   1.0000
     1.0000   1.0000   1.0000   1.0000   1.0000   1.0000   1.0000   1.0000
     1.0000   1.0000   1.0000   1.0000   1.0000   1.0000   1.0000   1.0000
     1.0000   1.0000   1.0000   1.0000   0.0000   0.0000   0.0000   0.0000
     0.0000   0.0000   0.0000   0.0000

          k =-0.0177-0.3712 0.6541 (  2014 PWs)   bands (ev):

   -14.5536 -14.5536 -14.5224 -14.5224 -14.4844 -14.4844 -14.4386 -14.4386
   -13.5623 -13.5623 -13.5114 -13.5114 -13.4558 -13.4558 -13.4326 -13.4326
   -13.3254 -13.3254 -13.2724 -13.2724  -0.0684  -0.0684   0.4770   0.4770
     4.4446   4.4446   4.8791   4.8791  10.4069  10.4069  11.1581  11.1581
    11.6723  11.6723  11.8982  11.8982

     occupation numbers 
     1.0000   1.0000   1.0000   1.0000   1.0000   1.0000   1.0000   1.0000
     1.0000   1.0000   1.0000   1.0000   1.0000   1.0000   1.0000   1.0000
     1.0000   1.0000   1.0000   1.0000   1.0000   1.0000   1.0000   1.0000
     1.0000   1.0000   1.0000   1.0000   0.0000   0.0000   0.0000   0.0000
     0.0000   0.0000   0.0000   0.0000

          k = 0.0000-0.3536 0.6364 (  2020 PWs)   bands (ev):

   -14.5549 -14.5549 -14.5233 -14.5233 -14.4855 -14.4855 -14.4392 -14.4392
   -13.5633 -13.5633 -13.5128 -13.5128 -13.4583 -13.4583 -13.4313 -13.4313
   -13.3261 -13.3261 -13.2736 -13.2736  -0.1542  -0.1542   0.5658   0.5658
     4.4208   4.4208   4.9343   4.9343  10.4235  10.4235  11.1302  11.1302
    11.5326  11.5326  12.0774  12.0774

     occupation numbers 
     1.0000   1.0000   1.0000   1.0000   1.0000   1.0000   1.0000   1.0000
     1.0000   1.0000   1.0000   1.0000   1.0000   1.0000   1.0000   1.0000
     1.0000   1.0000   1.0000   1.0000   1.0000   1.0000   1.0000   1.0000
     1.0000   1.0000   1.0000   1.0000   0.0000   0.0000   0.0000   0.0000
     0.0000   0.0000   0.0000   0.0000

          k =-0.0354-0.4243 0.7071 (  2024 PWs)   bands (ev):

   -14.5543 -14.5543 -14.5245 -14.5245 -14.4851 -14.4851 -14.4410 -14.4410
   -13.5630 -13.5630 -13.5136 -13.5136 -13.4559 -13.4559 -13.4363 -13.4363
   -13.3255 -13.3255 -13.2749 -13.2749  -0.0162  -0.0162   0.4162   0.4162
     4.5596   4.5596   4.8096   4.8096  10.2373  10.2373  10.4413  10.4413
    11.9568  11.9568  12.5775  12.5775

     occupation numbers 
     1.0000   1.0000   1.0000   1.0000   1.0000   1.0000   1.0000   1.0000
     1.0000   1.0000   1.0000   1.0000   1.0000   1.0000   1.0000   1.0000
     1.0000   1.0000   1.0000   1.0000   1.0000   1.0000   1.0000   1.0000
     1.0000   1.0000   1.0000   1.0000   0.0000   0.0000   0.0000   0.0000
     0.0000   0.0000   0.0000   0.0000

          k =-0.0177-0.4066 0.6894 (  2017 PWs)   bands (ev):

   -14.5536 -14.5536 -14.5238 -14.5238 -14.4839 -14.4839 -14.4395 -14.4395
   -13.5624 -13.5624 -13.5121 -13.5121 -13.4539 -13.4539 -13.4360 -13.4360
   -13.3249 -13.3249 -13.2728 -13.2728   0.0710   0.0710   0.3313   0.3313
     4.5378   4.5378   4.7812   4.7812  10.3364  10.3364  10.7076  10.7076
    11.8988  11.8988  12.2049  12.2049

     occupation numbers 
     1.0000   1.0000   1.0000   1.0000   1.0000   1.0000   1.0000   1.0000
     1.0000   1.0000   1.0000   1.0000   1.0000   1.0000   1.0000   1.0000
     1.0000   1.0000   1.0000   1.0000   1.0000   1.0000   1.0000   1.0000
     1.0000   1.0000   1.0000   1.0000   0.0000   0.0000   0.0000   0.0000
     0.0000   0.0000   0.0000   0.0000

          k =-0.0000-0.3889 0.6718 (  2016 PWs)   bands (ev):

   -14.5541 -14.5541 -14.5233 -14.5233 -14.4842 -14.4842 -14.4386 -14.4386
   -13.5625 -13.5625 -13.5118 -13.5118 -13.4547 -13.4547 -13.4348 -13.4348
   -13.3249 -13.3249 -13.2724 -13.2724   0.0399   0.0399   0.3656   0.3656
     4.4915   4.4915   4.8118   4.8118  10.3813  10.3813  11.0055  11.0055
    11.8450  11.8450  11.8898  11.8898

     occupation numbers 
     1.0000   1.0000   1.0000   1.0000   1.0000   1.0000   1.0000   1.0000
     1.0000   1.0000   1.0000   1.0000   1.0000   1.0000   1.0000   1.0000
     1.0000   1.0000   1.0000   1.0000   1.0000   1.0000   1.0000   1.0000
     1.0000   1.0000   1.0000   1.0000   0.0000   0.0000   0.0000   0.0000
     0.0000   0.0000   0.0000   0.0000

          k =-0.7071 0.2828 0.0000 (  2024 PWs)   bands (ev):

   -14.5543 -14.5543 -14.5246 -14.5246 -14.4851 -14.4851 -14.4410 -14.4410
   -13.5636 -13.5636 -13.5133 -13.5133 -13.4536 -13.4536 -13.4391 -13.4391
   -13.3249 -13.3249 -13.2744 -13.2744   0.1750   0.1750   0.2222   0.2222
     4.5870   4.5870   4.7578   4.7578  10.2378  10.2378  10.4372  10.4372
    12.2095  12.2095  12.3085  12.3085

     occupation numbers 
     1.0000   1.0000   1.0000   1.0000   1.0000   1.0000   1.0000   1.0000
     1.0000   1.0000   1.0000   1.0000   1.0000   1.0000   1.0000   1.0000
     1.0000   1.0000   1.0000   1.0000   1.0000   1.0000   1.0000   1.0000
     1.0000   1.0000   1.0000   1.0000   0.0000   0.0000   0.0000   0.0000
     0.0000   0.0000   0.0000   0.0000

          k =-0.0707-0.3889 0.7071 (  2028 PWs)   bands (ev):

   -14.5560 -14.5560 -14.5248 -14.5248 -14.4865 -14.4865 -14.4405 -14.4405
   -13.5639 -13.5639 -13.5146 -13.5146 -13.4606 -13.4606 -13.4313 -13.4313
   -13.3272 -13.3272 -13.2751 -13.2751  -0.1897  -0.1897   0.6020   0.6020
     4.4593   4.4593   4.9191   4.9191  10.4970  10.4970  10.8019  10.8019
    11.4252  11.4252  12.4616  12.4616

     occupation numbers 
     1.0000   1.0000   1.0000   1.0000   1.0000   1.0000   1.0000   1.0000
     1.0000   1.0000   1.0000   1.0000   1.0000   1.0000   1.0000   1.0000
     1.0000   1.0000   1.0000   1.0000   1.0000   1.0000   1.0000   1.0000
     1.0000   1.0000   1.0000   1.0000   0.0000   0.0000   0.0000   0.0000
     0.0000   0.0000   0.0000   0.0000

          k =-0.0530-0.3712 0.6894 (  2016 PWs)   bands (ev):

   -14.5542 -14.5542 -14.5227 -14.5227 -14.4848 -14.4848 -14.4386 -14.4386
   -13.5626 -13.5626 -13.5116 -13.5116 -13.4567 -13.4567 -13.4325 -13.4325
   -13.3256 -13.3256 -13.2726 -13.2726  -0.0910  -0.0910   0.5010   0.5010
     4.4611   4.4611   4.8639   4.8639  10.5579  10.5579  10.9828  10.9828
    11.4837  11.4837  12.1066  12.1066

     occupation numbers 
     1.0000   1.0000   1.0000   1.0000   1.0000   1.0000   1.0000   1.0000
     1.0000   1.0000   1.0000   1.0000   1.0000   1.0000   1.0000   1.0000
     1.0000   1.0000   1.0000   1.0000   1.0000   1.0000   1.0000   1.0000
     1.0000   1.0000   1.0000   1.0000   0.0000   0.0000   0.0000   0.0000
     0.0000   0.0000   0.0000   0.0000

          k =-0.0354-0.3536 0.6718 (  2016 PWs)   bands (ev):

   -14.5541 -14.5541 -14.5228 -14.5228 -14.4846 -14.4846 -14.4388 -14.4388
   -13.5627 -13.5627 -13.5114 -13.5114 -13.4559 -13.4559 -13.4333 -13.4333
   -13.3258 -13.3258 -13.2723 -13.2723  -0.0491  -0.0491   0.4584   0.4584
     4.4629   4.4629   4.8442   4.8442  10.5706  10.5706  11.0564  11.0564
    11.6009  11.6009  11.8843  11.8843

     occupation numbers 
     1.0000   1.0000   1.0000   1.0000   1.0000   1.0000   1.0000   1.0000
     1.0000   1.0000   1.0000   1.0000   1.0000   1.0000   1.0000   1.0000
     1.0000   1.0000   1.0000   1.0000   1.0000   1.0000   1.0000   1.0000
     1.0000   1.0000   1.0000   1.0000   0.0000   0.0000   0.0000   0.0000
     0.0000   0.0000   0.0000   0.0000

          k =-0.0354-0.3889 0.7071 (  2016 PWs)   bands (ev):

   -14.5533 -14.5533 -14.5233 -14.5233 -14.4841 -14.4841 -14.4393 -14.4393
   -13.5626 -13.5626 -13.5113 -13.5113 -13.4552 -13.4552 -13.4343 -13.4343
   -13.3257 -13.3257 -13.2725 -13.2725   0.0040   0.0040   0.4029   0.4029
     4.5145   4.5145   4.7902   4.7902  10.5548  10.5548  10.8149  10.8149
    11.6007  11.6007  12.1466  12.1466

     occupation numbers 
     1.0000   1.0000   1.0000   1.0000   1.0000   1.0000   1.0000   1.0000
     1.0000   1.0000   1.0000   1.0000   1.0000   1.0000   1.0000   1.0000
     1.0000   1.0000   1.0000   1.0000   1.0000   1.0000   1.0000   1.0000
     1.0000   1.0000   1.0000   1.0000   0.0000   0.0000   0.0000   0.0000
     0.0000   0.0000   0.0000   0.0000

          k =-0.0177-0.3712 0.6894 (  2016 PWs)   bands (ev):

   -14.5538 -14.5538 -14.5232 -14.5232 -14.4842 -14.4842 -14.4387 -14.4387
   -13.5626 -13.5626 -13.5110 -13.5110 -13.4543 -13.4543 -13.4355 -13.4355
   -13.3255 -13.3255 -13.2720 -13.2720   0.0743   0.0743   0.3333   0.3333
     4.5152   4.5152   4.7605   4.7605  10.6332  10.6332  11.0193  11.0193
    11.6028  11.6028  11.8262  11.8262

     occupation numbers 
     1.0000   1.0000   1.0000   1.0000   1.0000   1.0000   1.0000   1.0000
     1.0000   1.0000   1.0000   1.0000   1.0000   1.0000   1.0000   1.0000
     1.0000   1.0000   1.0000   1.0000   1.0000   1.0000   1.0000   1.0000
     1.0000   1.0000   1.0000   1.0000   0.0000   0.0000   0.0000   0.0000
     0.0000   0.0000   0.0000   0.0000

          k =-0.0000-0.3536 0.6718 (  2016 PWs)   bands (ev):

   -14.5538 -14.5538 -14.5230 -14.5230 -14.4845 -14.4845 -14.4387 -14.4387
   -13.5627 -13.5627 -13.5110 -13.5110 -13.4548 -13.4548 -13.4349 -13.4349
   -13.3256 -13.3256 -13.2721 -13.2721   0.0228   0.0228   0.3859   0.3859
     4.4914   4.4914   4.7910   4.7910  10.6386  10.6386  11.0902  11.0902
    11.5446  11.5446  11.8131  11.8131

     occupation numbers 
     1.0000   1.0000   1.0000   1.0000   1.0000   1.0000   1.0000   1.0000
     1.0000   1.0000   1.0000   1.0000   1.0000   1.0000   1.0000   1.0000
     1.0000   1.0000   1.0000   1.0000   1.0000   1.0000   1.0000   1.0000
     1.0000   1.0000   1.0000   1.0000   0.0000   0.0000   0.0000   0.0000
     0.0000   0.0000   0.0000   0.0000

          k =-0.7071 0.3182 0.0000 (  2016 PWs)   bands (ev):

   -14.5536 -14.5536 -14.5235 -14.5235 -14.4839 -14.4839 -14.4390 -14.4390
   -13.5625 -13.5625 -13.5113 -13.5113 -13.4533 -13.4533 -13.4367 -13.4367
   -13.3252 -13.3252 -13.2722 -13.2722   0.1779   0.1779   0.2272   0.2272
     4.5526   4.5526   4.7274   4.7274  10.5699  10.5699  10.8197  10.8197
    11.8282  11.8282  11.8757  11.8757

     occupation numbers 
     1.0000   1.0000   1.0000   1.0000   1.0000   1.0000   1.0000   1.0000
     1.0000   1.0000   1.0000   1.0000   1.0000   1.0000   1.0000   1.0000
     1.0000   1.0000   1.0000   1.0000   1.0000   1.0000   1.0000   1.0000
     1.0000   1.0000   1.0000   1.0000   0.0000   0.0000   0.0000   0.0000
     0.0000   0.0000   0.0000   0.0000

          k =-0.7071 0.3536 0.0000 (  1984 PWs)   bands (ev):

   -14.5483 -14.5483 -14.5176 -14.5176 -14.4794 -14.4794 -14.4340 -14.4340
   -13.5579 -13.5579 -13.5061 -13.5061 -13.4478 -13.4478 -13.4325 -13.4325
   -13.3206 -13.3206 -13.2683 -13.2683   0.1790   0.1790   0.2289   0.2289
     4.5409   4.5409   4.7170   4.7170  10.7419  10.7419  11.0605  11.0605
    11.6181  11.6181  11.6398  11.6398

     occupation numbers 
     1.0000   1.0000   1.0000   1.0000   1.0000   1.0000   1.0000   1.0000
     1.0000   1.0000   1.0000   1.0000   1.0000   1.0000   1.0000   1.0000
     1.0000   1.0000   1.0000   1.0000   1.0000   1.0000   1.0000   1.0000
     1.0000   1.0000   1.0000   1.0000   0.0000   0.0000   0.0000   0.0000
     0.0000   0.0000   0.0000   0.0000

     the Fermi energy is     7.6493 ev

!    total energy              =    -885.82837942 Ry
     Harris-Foulkes estimate   =    -885.82837931 Ry
     estimated scf accuracy    <       0.00000010 Ry

     total all-electron energy =    -24716.528129 Ry

     The total energy is the sum of the following terms:

     one-electron contribution =    -148.92337935 Ry
     hartree contribution      =      93.71235649 Ry
     xc contribution           =     -96.16583578 Ry
     ewald contribution        =    -170.59904351 Ry
     one-center paw contrib.   =    -563.85247727 Ry
     smearing contrib. (-TS)   =      -0.00000000 Ry

     convergence has been achieved in   5 iterations

     Writing output data file Sn.save
 
     init_run     :     51.81s CPU     53.37s WALL (       1 calls)
     electrons    :   1033.09s CPU   1064.67s WALL (       1 calls)

     Called by init_run:
     wfcinit      :     51.36s CPU     52.63s WALL (       1 calls)
     potinit      :      0.15s CPU      0.19s WALL (       1 calls)

     Called by electrons:
     c_bands      :    870.84s CPU    898.79s WALL (       6 calls)
     sum_band     :    161.33s CPU    164.64s WALL (       6 calls)
     v_of_rho     :      0.03s CPU      0.03s WALL (       6 calls)
     v_h          :      0.00s CPU      0.00s WALL (       6 calls)
     v_xc         :      0.03s CPU      0.03s WALL (       6 calls)
     newd         :      0.26s CPU      0.28s WALL (       6 calls)
     PAW_pot      :      0.74s CPU      0.82s WALL (       6 calls)
     mix_rho      :      0.01s CPU      0.02s WALL (       6 calls)

     Called by c_bands:
     init_us_2    :      1.52s CPU      1.92s WALL (   21593 calls)
     cegterg      :    841.37s CPU    866.61s WALL (    9966 calls)

     Called by sum_band:
     sum_band:bec :     22.00s CPU     22.17s WALL (    9966 calls)
     addusdens    :      0.07s CPU      0.09s WALL (       6 calls)

     Called by *egterg:
     h_psi        :    675.65s CPU    691.84s WALL (   35400 calls)
     s_psi        :     17.83s CPU     17.97s WALL (   35400 calls)
     g_psi        :      1.02s CPU      1.03s WALL (   23773 calls)
     cdiaghg      :     89.50s CPU     91.40s WALL (   32078 calls)
     cegterg:over :     50.80s CPU     50.98s WALL (   23773 calls)
     cegterg:upda :      8.23s CPU      8.28s WALL (   23773 calls)
     cegterg:last :      4.20s CPU      4.22s WALL (    9966 calls)

     Called by h_psi:
     h_psi:vloc   :    615.96s CPU    631.48s WALL (   35400 calls)
     h_psi:vnl    :     58.76s CPU     59.33s WALL (   35400 calls)
     add_vuspsi   :     20.02s CPU     20.16s WALL (   35400 calls)

     General routines
     calbec       :     51.77s CPU     52.38s WALL (   45366 calls)
     fft          :      0.05s CPU      0.15s WALL (     116 calls)
     fftw         :    709.41s CPU    727.47s WALL ( 4531596 calls)
     davcio       :      0.12s CPU      1.85s WALL (    1661 calls)
 
     Parallel routines
     fft_scatter  :    556.83s CPU    572.21s WALL ( 4531712 calls)

     PAW routines
     PAW_pot      :      0.74s CPU      0.82s WALL (       6 calls)
     PAW_symme    :      0.04s CPU      0.04s WALL (      12 calls)
 
     PWSCF        : 18m 8.34s CPU    18m43.81s WALL

 
   This run was terminated on:  21:29:29   8Mar2020            

=------------------------------------------------------------------------------=
   JOB DONE.
=------------------------------------------------------------------------------=
