
     Program PWSCF v.5.4.0 starts on 15Mar2020 at 19:52:56 

     This program is part of the open-source Quantum ESPRESSO suite
     for quantum simulation of materials; please cite
         "P. Giannozzi et al., J. Phys.:Condens. Matter 21 395502 (2009);
          URL http://www.quantum-espresso.org", 
     in publications or presentations arising from this work. More details at
     http://www.quantum-espresso.org/quote

     Parallel version (MPI & OpenMP), running on      16 processor cores
     Number of MPI processes:                16
     Threads/MPI process:                     1
     R & G space division:  proc/nbgrp/npool/nimage =      16
     Waiting for input...
     Reading input from standard input
Warning: card &IONS ignored
Warning: card / ignored
Warning: card &CELL ignored
Warning: card / ignored

     Current dimensions of program PWSCF are:
     Max number of different atomic species (ntypx) = 10
     Max number of k-points (npk) =  40000
     Max angular momentum in pseudopotentials (lmaxx) =  3
               file Sn.rel-pbe-dn-kjpaw_psl.0.2.UPF: wavefunction(s)  5P 5P 4D 4D renormalized

     Subspace diagonalization in iterative solution of the eigenvalue problem:
     a serial algorithm will be used

 
     Parallelization info
     --------------------
     sticks:   dense  smooth     PW     G-vecs:    dense   smooth      PW
     Min          88      88     26                 2220     2220     349
     Max          89      89     27                 2224     2224     352
     Sum        1417    1417    421                35557    35557    5601
 

     Title: 
     Sn                                                                         


     bravais-lattice index     =            0
     lattice parameter (alat)  =       8.9127  a.u.
     unit-cell volume          =     500.6268 (a.u.)^3
     number of atoms/cell      =            2
     number of atomic types    =            1
     number of electrons       =        28.00
     number of Kohn-Sham states=           36
     kinetic-energy cutoff     =      65.0000  Ry
     charge density cutoff     =     260.0000  Ry
     convergence threshold     =      1.0E-06
     mixing beta               =       0.7000
     number of iterations used =            8  plain     mixing
     Exchange-correlation      =  SLA  PW   PBX  PBC ( 1  4  3  4 0 0)
     Non magnetic calculation with spin-orbit


     celldm(1)=   8.912709  celldm(2)=   0.000000  celldm(3)=   0.000000
     celldm(4)=   0.000000  celldm(5)=   0.000000  celldm(6)=   0.000000

     crystal axes: (cart. coord. in units of alat)
               a(1) = (   0.000000   0.707107   0.707107 )  
               a(2) = (   0.707107   0.000000   0.707107 )  
               a(3) = (   0.707107   0.707107   0.000000 )  

     reciprocal axes: (cart. coord. in units 2 pi/alat)
               b(1) = ( -0.707107  0.707107  0.707107 )  
               b(2) = (  0.707107 -0.707107  0.707107 )  
               b(3) = (  0.707107  0.707107 -0.707107 )  


     PseudoPot. # 1 for Sn read from file:
     ../PseudopotentialDatabase/Sn.rel-pbe-dn-kjpaw_psl.0.2.UPF
     MD5 check sum: 79f626d90b2bb8cc2658247f48f3d9cb
     Pseudo is Projector augmented-wave + core cor, Zval = 14.0
     Generated using "atomic" code by A. Dal Corso  v.5.0.2 svn rev. 9415
     Shape of augmentation charge: BESSEL
     Using radial grid of 1243 points, 10 beta functions with: 
                l(1) =   0
                l(2) =   0
                l(3) =   1
                l(4) =   1
                l(5) =   1
                l(6) =   1
                l(7) =   2
                l(8) =   2
                l(9) =   2
               l(10) =   2
     Q(r) pseudized with 0 coefficients 


     atomic species   valence    mass     pseudopotential
        Sn            14.00   118.71000     Sn( 1.00)

     24 Sym. Ops. (no inversion) found
          (note: 24 additional sym.ops. were found but ignored
           their fractional translations are incommensurate with FFT grid)

                                    s                        frac. trans.

      isym =  1     identity                                     

 cryst.   s( 1) = (     1          0          0      )
                  (     0          1          0      )
                  (     0          0          1      )

 cart.    s( 1) = (  1.0000000  0.0000000  0.0000000 )
                  (  0.0000000  1.0000000  0.0000000 )
                  (  0.0000000  0.0000000  1.0000000 )


      isym =  2     180 deg rotation - cart. axis [0,0,1]        

 cryst.   s( 2) = (     0          1         -1      )
                  (     1          0         -1      )
                  (     0          0         -1      )

 cart.    s( 2) = ( -1.0000000  0.0000000  0.0000000 )
                  (  0.0000000 -1.0000000  0.0000000 )
                  (  0.0000000  0.0000000  1.0000000 )


      isym =  3     180 deg rotation - cart. axis [0,1,0]        

 cryst.   s( 3) = (     0         -1          1      )
                  (     0         -1          0      )
                  (     1         -1          0      )

 cart.    s( 3) = ( -1.0000000  0.0000000  0.0000000 )
                  (  0.0000000  1.0000000  0.0000000 )
                  (  0.0000000  0.0000000 -1.0000000 )


      isym =  4     180 deg rotation - cart. axis [1,0,0]        

 cryst.   s( 4) = (    -1          0          0      )
                  (    -1          0          1      )
                  (    -1          1          0      )

 cart.    s( 4) = (  1.0000000  0.0000000  0.0000000 )
                  (  0.0000000 -1.0000000  0.0000000 )
                  (  0.0000000  0.0000000 -1.0000000 )


      isym =  5     120 deg rotation - cart. axis [-1,-1,-1]     

 cryst.   s( 5) = (     0          0          1      )
                  (     1          0          0      )
                  (     0          1          0      )

 cart.    s( 5) = (  0.0000000  1.0000000  0.0000000 )
                  (  0.0000000  0.0000000  1.0000000 )
                  (  1.0000000  0.0000000  0.0000000 )


      isym =  6     120 deg rotation - cart. axis [-1,1,1]       

 cryst.   s( 6) = (     1         -1          0      )
                  (     0         -1          1      )
                  (     0         -1          0      )

 cart.    s( 6) = (  0.0000000 -1.0000000  0.0000000 )
                  (  0.0000000  0.0000000  1.0000000 )
                  ( -1.0000000  0.0000000  0.0000000 )


      isym =  7     120 deg rotation - cart. axis [1,1,-1]       

 cryst.   s( 7) = (    -1          1          0      )
                  (    -1          0          0      )
                  (    -1          0          1      )

 cart.    s( 7) = (  0.0000000  1.0000000  0.0000000 )
                  (  0.0000000  0.0000000 -1.0000000 )
                  ( -1.0000000  0.0000000  0.0000000 )


      isym =  8     120 deg rotation - cart. axis [1,-1,1]       

 cryst.   s( 8) = (     0          0         -1      )
                  (     0          1         -1      )
                  (     1          0         -1      )

 cart.    s( 8) = (  0.0000000 -1.0000000  0.0000000 )
                  (  0.0000000  0.0000000 -1.0000000 )
                  (  1.0000000  0.0000000  0.0000000 )


      isym =  9     120 deg rotation - cart. axis [1,1,1]        

 cryst.   s( 9) = (     0          1          0      )
                  (     0          0          1      )
                  (     1          0          0      )

 cart.    s( 9) = (  0.0000000  0.0000000  1.0000000 )
                  (  1.0000000  0.0000000  0.0000000 )
                  (  0.0000000  1.0000000  0.0000000 )


      isym = 10     120 deg rotation - cart. axis [-1,1,-1]      

 cryst.   s(10) = (    -1          0          1      )
                  (    -1          1          0      )
                  (    -1          0          0      )

 cart.    s(10) = (  0.0000000  0.0000000  1.0000000 )
                  ( -1.0000000  0.0000000  0.0000000 )
                  (  0.0000000 -1.0000000  0.0000000 )


      isym = 11     120 deg rotation - cart. axis [1,-1,-1]      

 cryst.   s(11) = (     1          0         -1      )
                  (     0          0         -1      )
                  (     0          1         -1      )

 cart.    s(11) = (  0.0000000  0.0000000 -1.0000000 )
                  ( -1.0000000  0.0000000  0.0000000 )
                  (  0.0000000  1.0000000  0.0000000 )


      isym = 12     120 deg rotation - cart. axis [-1,-1,1]      

 cryst.   s(12) = (     0         -1          0      )
                  (     1         -1          0      )
                  (     0         -1          1      )

 cart.    s(12) = (  0.0000000  0.0000000 -1.0000000 )
                  (  1.0000000  0.0000000  0.0000000 )
                  (  0.0000000 -1.0000000  0.0000000 )


      isym = 13     inv. 180 deg rotation - cart. axis [1,1,0]   

 cryst.   s(13) = (     1          0         -1      )
                  (     0          1         -1      )
                  (     0          0         -1      )

 cart.    s(13) = (  0.0000000 -1.0000000  0.0000000 )
                  ( -1.0000000  0.0000000  0.0000000 )
                  (  0.0000000  0.0000000  1.0000000 )


      isym = 14     inv. 180 deg rotation - cart. axis [1,-1,0]  

 cryst.   s(14) = (     0          1          0      )
                  (     1          0          0      )
                  (     0          0          1      )

 cart.    s(14) = (  0.0000000  1.0000000  0.0000000 )
                  (  1.0000000  0.0000000  0.0000000 )
                  (  0.0000000  0.0000000  1.0000000 )


      isym = 15     inv.  90 deg rotation - cart. axis [0,0,-1]  

 cryst.   s(15) = (     0         -1          0      )
                  (     0         -1          1      )
                  (     1         -1          0      )

 cart.    s(15) = (  0.0000000 -1.0000000  0.0000000 )
                  (  1.0000000  0.0000000  0.0000000 )
                  (  0.0000000  0.0000000 -1.0000000 )


      isym = 16     inv.  90 deg rotation - cart. axis [0,0,1]   

 cryst.   s(16) = (    -1          0          1      )
                  (    -1          0          0      )
                  (    -1          1          0      )

 cart.    s(16) = (  0.0000000  1.0000000  0.0000000 )
                  ( -1.0000000  0.0000000  0.0000000 )
                  (  0.0000000  0.0000000 -1.0000000 )


      isym = 17     inv. 180 deg rotation - cart. axis [1,0,1]   

 cryst.   s(17) = (     1         -1          0      )
                  (     0         -1          0      )
                  (     0         -1          1      )

 cart.    s(17) = (  0.0000000  0.0000000 -1.0000000 )
                  (  0.0000000  1.0000000  0.0000000 )
                  ( -1.0000000  0.0000000  0.0000000 )


      isym = 18     inv. 180 deg rotation - cart. axis [-1,0,1]  

 cryst.   s(18) = (     0          0          1      )
                  (     0          1          0      )
                  (     1          0          0      )

 cart.    s(18) = (  0.0000000  0.0000000  1.0000000 )
                  (  0.0000000  1.0000000  0.0000000 )
                  (  1.0000000  0.0000000  0.0000000 )


      isym = 19     inv.  90 deg rotation - cart. axis [0,1,0]   

 cryst.   s(19) = (     0          0         -1      )
                  (     1          0         -1      )
                  (     0          1         -1      )

 cart.    s(19) = (  0.0000000  0.0000000 -1.0000000 )
                  (  0.0000000 -1.0000000  0.0000000 )
                  (  1.0000000  0.0000000  0.0000000 )


      isym = 20     inv.  90 deg rotation - cart. axis [0,-1,0]  

 cryst.   s(20) = (    -1          1          0      )
                  (    -1          0          1      )
                  (    -1          0          0      )

 cart.    s(20) = (  0.0000000  0.0000000  1.0000000 )
                  (  0.0000000 -1.0000000  0.0000000 )
                  ( -1.0000000  0.0000000  0.0000000 )


      isym = 21     inv. 180 deg rotation - cart. axis [0,1,1]   

 cryst.   s(21) = (    -1          0          0      )
                  (    -1          1          0      )
                  (    -1          0          1      )

 cart.    s(21) = (  1.0000000  0.0000000  0.0000000 )
                  (  0.0000000  0.0000000 -1.0000000 )
                  (  0.0000000 -1.0000000  0.0000000 )


      isym = 22     inv. 180 deg rotation - cart. axis [0,1,-1]  

 cryst.   s(22) = (     1          0          0      )
                  (     0          0          1      )
                  (     0          1          0      )

 cart.    s(22) = (  1.0000000  0.0000000  0.0000000 )
                  (  0.0000000  0.0000000  1.0000000 )
                  (  0.0000000  1.0000000  0.0000000 )


      isym = 23     inv.  90 deg rotation - cart. axis [-1,0,0]  

 cryst.   s(23) = (     0          1         -1      )
                  (     0          0         -1      )
                  (     1          0         -1      )

 cart.    s(23) = ( -1.0000000  0.0000000  0.0000000 )
                  (  0.0000000  0.0000000 -1.0000000 )
                  (  0.0000000  1.0000000  0.0000000 )


      isym = 24     inv.  90 deg rotation - cart. axis [1,0,0]   

 cryst.   s(24) = (     0         -1          1      )
                  (     1         -1          0      )
                  (     0         -1          0      )

 cart.    s(24) = ( -1.0000000  0.0000000  0.0000000 )
                  (  0.0000000  0.0000000  1.0000000 )
                  (  0.0000000 -1.0000000  0.0000000 )


   Cartesian axes

     site n.     atom                  positions (alat units)
         1           Sn  tau(   1) = (   0.0000000   0.0000000   0.0000000  )
         2           Sn  tau(   2) = (   0.3535534   0.3535534   0.3535534  )

   Crystallographic axes

     site n.     atom                  positions (cryst. coord.)
         1           Sn  tau(   1) = (  0.0000000  0.0000000  0.0000000  )
         2           Sn  tau(   2) = (  0.2500000  0.2500000  0.2500000  )

     number of k points=   145  gaussian smearing, width (Ry)=  0.0001
                       cart. coord. in units 2pi/alat
        k(    1) = (   0.0000000   0.0000000   0.0000000), wk =   0.0002441
        k(    2) = (   0.0441942   0.0441942  -0.0441942), wk =   0.0019531
        k(    3) = (   0.0883883   0.0883883  -0.0883883), wk =   0.0019531
        k(    4) = (   0.1325825   0.1325825  -0.1325825), wk =   0.0019531
        k(    5) = (   0.1767767   0.1767767  -0.1767767), wk =   0.0019531
        k(    6) = (   0.2209709   0.2209709  -0.2209709), wk =   0.0019531
        k(    7) = (   0.2651650   0.2651650  -0.2651650), wk =   0.0019531
        k(    8) = (   0.3093592   0.3093592  -0.3093592), wk =   0.0019531
        k(    9) = (  -0.3535534  -0.3535534   0.3535534), wk =   0.0009766
        k(   10) = (   0.0883883   0.0000000   0.0000000), wk =   0.0014648
        k(   11) = (   0.1325825   0.0441942  -0.0441942), wk =   0.0058594
        k(   12) = (   0.1767767   0.0883883  -0.0883883), wk =   0.0058594
        k(   13) = (   0.2209709   0.1325825  -0.1325825), wk =   0.0058594
        k(   14) = (   0.2651650   0.1767767  -0.1767767), wk =   0.0058594
        k(   15) = (   0.3093592   0.2209709  -0.2209709), wk =   0.0058594
        k(   16) = (   0.3535534   0.2651650  -0.2651650), wk =   0.0058594
        k(   17) = (  -0.3093592  -0.3977476   0.3977476), wk =   0.0058594
        k(   18) = (  -0.2651650  -0.3535534   0.3535534), wk =   0.0058594
        k(   19) = (  -0.2209709  -0.3093592   0.3093592), wk =   0.0058594
        k(   20) = (  -0.1767767  -0.2651650   0.2651650), wk =   0.0058594
        k(   21) = (  -0.1325825  -0.2209709   0.2209709), wk =   0.0058594
        k(   22) = (  -0.0883883  -0.1767767   0.1767767), wk =   0.0058594
        k(   23) = (  -0.0441942  -0.1325825   0.1325825), wk =   0.0058594
        k(   24) = (   0.0000000  -0.0883883   0.0883883), wk =   0.0029297
        k(   25) = (   0.1767767   0.0000000   0.0000000), wk =   0.0014648
        k(   26) = (   0.2209709   0.0441942  -0.0441942), wk =   0.0058594
        k(   27) = (   0.2651650   0.0883883  -0.0883883), wk =   0.0058594
        k(   28) = (   0.3093592   0.1325825  -0.1325825), wk =   0.0058594
        k(   29) = (   0.3535534   0.1767767  -0.1767767), wk =   0.0058594
        k(   30) = (   0.3977476   0.2209709  -0.2209709), wk =   0.0058594
        k(   31) = (  -0.2651650  -0.4419417   0.4419417), wk =   0.0058594
        k(   32) = (  -0.2209709  -0.3977476   0.3977476), wk =   0.0058594
        k(   33) = (  -0.1767767  -0.3535534   0.3535534), wk =   0.0058594
        k(   34) = (  -0.1325825  -0.3093592   0.3093592), wk =   0.0058594
        k(   35) = (  -0.0883883  -0.2651650   0.2651650), wk =   0.0058594
        k(   36) = (  -0.0441942  -0.2209709   0.2209709), wk =   0.0058594
        k(   37) = (   0.0000000  -0.1767767   0.1767767), wk =   0.0029297
        k(   38) = (   0.2651650   0.0000000   0.0000000), wk =   0.0014648
        k(   39) = (   0.3093592   0.0441942  -0.0441942), wk =   0.0058594
        k(   40) = (   0.3535534   0.0883883  -0.0883883), wk =   0.0058594
        k(   41) = (   0.3977476   0.1325825  -0.1325825), wk =   0.0058594
        k(   42) = (   0.4419417   0.1767767  -0.1767767), wk =   0.0058594
        k(   43) = (  -0.2209709  -0.4861359   0.4861359), wk =   0.0058594
        k(   44) = (  -0.1767767  -0.4419417   0.4419417), wk =   0.0058594
        k(   45) = (  -0.1325825  -0.3977476   0.3977476), wk =   0.0058594
        k(   46) = (  -0.0883883  -0.3535534   0.3535534), wk =   0.0058594
        k(   47) = (  -0.0441942  -0.3093592   0.3093592), wk =   0.0058594
        k(   48) = (   0.0000000  -0.2651650   0.2651650), wk =   0.0029297
        k(   49) = (   0.3535534   0.0000000   0.0000000), wk =   0.0014648
        k(   50) = (   0.3977476   0.0441942  -0.0441942), wk =   0.0058594
        k(   51) = (   0.4419417   0.0883883  -0.0883883), wk =   0.0058594
        k(   52) = (   0.4861359   0.1325825  -0.1325825), wk =   0.0058594
        k(   53) = (  -0.1767767  -0.5303301   0.5303301), wk =   0.0058594
        k(   54) = (  -0.1325825  -0.4861359   0.4861359), wk =   0.0058594
        k(   55) = (  -0.0883883  -0.4419417   0.4419417), wk =   0.0058594
        k(   56) = (  -0.0441942  -0.3977476   0.3977476), wk =   0.0058594
        k(   57) = (   0.0000000  -0.3535534   0.3535534), wk =   0.0029297
        k(   58) = (   0.4419417   0.0000000   0.0000000), wk =   0.0014648
        k(   59) = (   0.4861359   0.0441942  -0.0441942), wk =   0.0058594
        k(   60) = (   0.5303301   0.0883883  -0.0883883), wk =   0.0058594
        k(   61) = (  -0.1325825  -0.5745243   0.5745243), wk =   0.0058594
        k(   62) = (  -0.0883883  -0.5303301   0.5303301), wk =   0.0058594
        k(   63) = (  -0.0441942  -0.4861359   0.4861359), wk =   0.0058594
        k(   64) = (   0.0000000  -0.4419417   0.4419417), wk =   0.0029297
        k(   65) = (   0.5303301   0.0000000   0.0000000), wk =   0.0014648
        k(   66) = (   0.5745243   0.0441942  -0.0441942), wk =   0.0058594
        k(   67) = (  -0.0883883  -0.6187184   0.6187184), wk =   0.0058594
        k(   68) = (  -0.0441942  -0.5745243   0.5745243), wk =   0.0058594
        k(   69) = (   0.0000000  -0.5303301   0.5303301), wk =   0.0029297
        k(   70) = (   0.6187184   0.0000000   0.0000000), wk =   0.0014648
        k(   71) = (  -0.0441942  -0.6629126   0.6629126), wk =   0.0058594
        k(   72) = (   0.0000000  -0.6187184   0.6187184), wk =   0.0029297
        k(   73) = (  -0.7071068   0.0000000   0.0000000), wk =   0.0007324
        k(   74) = (   0.1767767   0.0883883   0.0000000), wk =   0.0058594
        k(   75) = (   0.2209709   0.1325825  -0.0441942), wk =   0.0117188
        k(   76) = (   0.2651650   0.1767767  -0.0883883), wk =   0.0117188
        k(   77) = (   0.3093592   0.2209709  -0.1325825), wk =   0.0117188
        k(   78) = (   0.3535534   0.2651650  -0.1767767), wk =   0.0117188
        k(   79) = (  -0.3093592  -0.3977476   0.4861359), wk =   0.0117188
        k(   80) = (  -0.2651650  -0.3535534   0.4419417), wk =   0.0058594
        k(   81) = (   0.2651650   0.0883883   0.0000000), wk =   0.0058594
        k(   82) = (   0.3093592   0.1325825  -0.0441942), wk =   0.0117188
        k(   83) = (   0.3535534   0.1767767  -0.0883883), wk =   0.0117188
        k(   84) = (   0.3977476   0.2209709  -0.1325825), wk =   0.0117188
        k(   85) = (  -0.2651650  -0.4419417   0.5303301), wk =   0.0117188
        k(   86) = (  -0.2209709  -0.3977476   0.4861359), wk =   0.0117188
        k(   87) = (  -0.1767767  -0.3535534   0.4419417), wk =   0.0117188
        k(   88) = (  -0.1325825  -0.3093592   0.3977476), wk =   0.0117188
        k(   89) = (  -0.0883883  -0.2651650   0.3535534), wk =   0.0117188
        k(   90) = (  -0.0441942  -0.2209709   0.3093592), wk =   0.0117188
        k(   91) = (   0.0000000  -0.1767767   0.2651650), wk =   0.0058594
        k(   92) = (   0.3535534   0.0883883   0.0000000), wk =   0.0058594
        k(   93) = (   0.3977476   0.1325825  -0.0441942), wk =   0.0117188
        k(   94) = (   0.4419417   0.1767767  -0.0883883), wk =   0.0117188
        k(   95) = (  -0.2209709  -0.4861359   0.5745243), wk =   0.0117188
        k(   96) = (  -0.1767767  -0.4419417   0.5303301), wk =   0.0117188
        k(   97) = (  -0.1325825  -0.3977476   0.4861359), wk =   0.0117188
        k(   98) = (  -0.0883883  -0.3535534   0.4419417), wk =   0.0117188
        k(   99) = (  -0.0441942  -0.3093592   0.3977476), wk =   0.0117188
        k(  100) = (   0.0000000  -0.2651650   0.3535534), wk =   0.0058594
        k(  101) = (   0.4419417   0.0883883   0.0000000), wk =   0.0058594
        k(  102) = (   0.4861359   0.1325825  -0.0441942), wk =   0.0117188
        k(  103) = (  -0.1767767  -0.5303301   0.6187184), wk =   0.0117188
        k(  104) = (  -0.1325825  -0.4861359   0.5745243), wk =   0.0117188
        k(  105) = (  -0.0883883  -0.4419417   0.5303301), wk =   0.0117188
        k(  106) = (  -0.0441942  -0.3977476   0.4861359), wk =   0.0117188
        k(  107) = (   0.0000000  -0.3535534   0.4419417), wk =   0.0058594
        k(  108) = (   0.5303301   0.0883883   0.0000000), wk =   0.0058594
        k(  109) = (  -0.1325825  -0.5745243   0.6629126), wk =   0.0117188
        k(  110) = (  -0.0883883  -0.5303301   0.6187184), wk =   0.0117188
        k(  111) = (  -0.0441942  -0.4861359   0.5745243), wk =   0.0117188
        k(  112) = (   0.0000000  -0.4419417   0.5303301), wk =   0.0058594
        k(  113) = (  -0.0883883  -0.6187184   0.7071068), wk =   0.0058594
        k(  114) = (  -0.0441942  -0.5745243   0.6629126), wk =   0.0117188
        k(  115) = (  -0.0000000  -0.5303301   0.6187184), wk =   0.0058594
        k(  116) = (  -0.7071068   0.0883883   0.0000000), wk =   0.0029297
        k(  117) = (   0.3535534   0.1767767   0.0000000), wk =   0.0058594
        k(  118) = (   0.3977476   0.2209709  -0.0441942), wk =   0.0117188
        k(  119) = (  -0.2651650  -0.4419417   0.6187184), wk =   0.0117188
        k(  120) = (  -0.2209709  -0.3977476   0.5745243), wk =   0.0117188
        k(  121) = (  -0.1767767  -0.3535534   0.5303301), wk =   0.0058594
        k(  122) = (   0.4419417   0.1767767   0.0000000), wk =   0.0058594
        k(  123) = (  -0.2209709  -0.4861359   0.6629126), wk =   0.0117188
        k(  124) = (  -0.1767767  -0.4419417   0.6187184), wk =   0.0117188
        k(  125) = (  -0.1325825  -0.3977476   0.5745243), wk =   0.0117188
        k(  126) = (  -0.0883883  -0.3535534   0.5303301), wk =   0.0117188
        k(  127) = (  -0.0441942  -0.3093592   0.4861359), wk =   0.0117188
        k(  128) = (   0.0000000  -0.2651650   0.4419417), wk =   0.0058594
        k(  129) = (  -0.1767767  -0.5303301   0.7071068), wk =   0.0058594
        k(  130) = (  -0.1325825  -0.4861359   0.6629126), wk =   0.0117188
        k(  131) = (  -0.0883883  -0.4419417   0.6187184), wk =   0.0117188
        k(  132) = (  -0.0441942  -0.3977476   0.5745243), wk =   0.0117188
        k(  133) = (   0.0000000  -0.3535534   0.5303301), wk =   0.0058594
        k(  134) = (  -0.0883883  -0.5303301   0.7071068), wk =   0.0058594
        k(  135) = (  -0.0441942  -0.4861359   0.6629126), wk =   0.0117188
        k(  136) = (   0.0000000  -0.4419417   0.6187184), wk =   0.0058594
        k(  137) = (  -0.7071068   0.1767767   0.0000000), wk =   0.0029297
        k(  138) = (  -0.1767767  -0.4419417   0.7071068), wk =   0.0058594
        k(  139) = (  -0.1325825  -0.3977476   0.6629126), wk =   0.0117188
        k(  140) = (  -0.0883883  -0.3535534   0.6187184), wk =   0.0058594
        k(  141) = (  -0.0883883  -0.4419417   0.7071068), wk =   0.0058594
        k(  142) = (  -0.0441942  -0.3977476   0.6629126), wk =   0.0117188
        k(  143) = (  -0.0000000  -0.3535534   0.6187184), wk =   0.0058594
        k(  144) = (  -0.7071068   0.2651650   0.0000000), wk =   0.0029297
        k(  145) = (  -0.7071068   0.3535534   0.0000000), wk =   0.0014648

                       cryst. coord.
        k(    1) = (   0.0000000   0.0000000   0.0000000), wk =   0.0002441
        k(    2) = (   0.0000000   0.0000000   0.0625000), wk =   0.0019531
        k(    3) = (   0.0000000   0.0000000   0.1250000), wk =   0.0019531
        k(    4) = (   0.0000000   0.0000000   0.1875000), wk =   0.0019531
        k(    5) = (   0.0000000   0.0000000   0.2500000), wk =   0.0019531
        k(    6) = (   0.0000000   0.0000000   0.3125000), wk =   0.0019531
        k(    7) = (   0.0000000   0.0000000   0.3750000), wk =   0.0019531
        k(    8) = (   0.0000000   0.0000000   0.4375000), wk =   0.0019531
        k(    9) = (   0.0000000   0.0000000  -0.5000000), wk =   0.0009766
        k(   10) = (   0.0000000   0.0625000   0.0625000), wk =   0.0014648
        k(   11) = (   0.0000000   0.0625000   0.1250000), wk =   0.0058594
        k(   12) = (   0.0000000   0.0625000   0.1875000), wk =   0.0058594
        k(   13) = (   0.0000000   0.0625000   0.2500000), wk =   0.0058594
        k(   14) = (   0.0000000   0.0625000   0.3125000), wk =   0.0058594
        k(   15) = (   0.0000000   0.0625000   0.3750000), wk =   0.0058594
        k(   16) = (   0.0000000   0.0625000   0.4375000), wk =   0.0058594
        k(   17) = (   0.0000000   0.0625000  -0.5000000), wk =   0.0058594
        k(   18) = (   0.0000000   0.0625000  -0.4375000), wk =   0.0058594
        k(   19) = (   0.0000000   0.0625000  -0.3750000), wk =   0.0058594
        k(   20) = (   0.0000000   0.0625000  -0.3125000), wk =   0.0058594
        k(   21) = (   0.0000000   0.0625000  -0.2500000), wk =   0.0058594
        k(   22) = (   0.0000000   0.0625000  -0.1875000), wk =   0.0058594
        k(   23) = (   0.0000000   0.0625000  -0.1250000), wk =   0.0058594
        k(   24) = (   0.0000000   0.0625000  -0.0625000), wk =   0.0029297
        k(   25) = (   0.0000000   0.1250000   0.1250000), wk =   0.0014648
        k(   26) = (   0.0000000   0.1250000   0.1875000), wk =   0.0058594
        k(   27) = (   0.0000000   0.1250000   0.2500000), wk =   0.0058594
        k(   28) = (   0.0000000   0.1250000   0.3125000), wk =   0.0058594
        k(   29) = (   0.0000000   0.1250000   0.3750000), wk =   0.0058594
        k(   30) = (   0.0000000   0.1250000   0.4375000), wk =   0.0058594
        k(   31) = (   0.0000000   0.1250000  -0.5000000), wk =   0.0058594
        k(   32) = (   0.0000000   0.1250000  -0.4375000), wk =   0.0058594
        k(   33) = (   0.0000000   0.1250000  -0.3750000), wk =   0.0058594
        k(   34) = (   0.0000000   0.1250000  -0.3125000), wk =   0.0058594
        k(   35) = (   0.0000000   0.1250000  -0.2500000), wk =   0.0058594
        k(   36) = (   0.0000000   0.1250000  -0.1875000), wk =   0.0058594
        k(   37) = (   0.0000000   0.1250000  -0.1250000), wk =   0.0029297
        k(   38) = (   0.0000000   0.1875000   0.1875000), wk =   0.0014648
        k(   39) = (   0.0000000   0.1875000   0.2500000), wk =   0.0058594
        k(   40) = (   0.0000000   0.1875000   0.3125000), wk =   0.0058594
        k(   41) = (   0.0000000   0.1875000   0.3750000), wk =   0.0058594
        k(   42) = (   0.0000000   0.1875000   0.4375000), wk =   0.0058594
        k(   43) = (   0.0000000   0.1875000  -0.5000000), wk =   0.0058594
        k(   44) = (   0.0000000   0.1875000  -0.4375000), wk =   0.0058594
        k(   45) = (   0.0000000   0.1875000  -0.3750000), wk =   0.0058594
        k(   46) = (   0.0000000   0.1875000  -0.3125000), wk =   0.0058594
        k(   47) = (   0.0000000   0.1875000  -0.2500000), wk =   0.0058594
        k(   48) = (   0.0000000   0.1875000  -0.1875000), wk =   0.0029297
        k(   49) = (   0.0000000   0.2500000   0.2500000), wk =   0.0014648
        k(   50) = (   0.0000000   0.2500000   0.3125000), wk =   0.0058594
        k(   51) = (   0.0000000   0.2500000   0.3750000), wk =   0.0058594
        k(   52) = (   0.0000000   0.2500000   0.4375000), wk =   0.0058594
        k(   53) = (   0.0000000   0.2500000  -0.5000000), wk =   0.0058594
        k(   54) = (   0.0000000   0.2500000  -0.4375000), wk =   0.0058594
        k(   55) = (   0.0000000   0.2500000  -0.3750000), wk =   0.0058594
        k(   56) = (   0.0000000   0.2500000  -0.3125000), wk =   0.0058594
        k(   57) = (   0.0000000   0.2500000  -0.2500000), wk =   0.0029297
        k(   58) = (   0.0000000   0.3125000   0.3125000), wk =   0.0014648
        k(   59) = (   0.0000000   0.3125000   0.3750000), wk =   0.0058594
        k(   60) = (   0.0000000   0.3125000   0.4375000), wk =   0.0058594
        k(   61) = (   0.0000000   0.3125000  -0.5000000), wk =   0.0058594
        k(   62) = (   0.0000000   0.3125000  -0.4375000), wk =   0.0058594
        k(   63) = (   0.0000000   0.3125000  -0.3750000), wk =   0.0058594
        k(   64) = (   0.0000000   0.3125000  -0.3125000), wk =   0.0029297
        k(   65) = (   0.0000000   0.3750000   0.3750000), wk =   0.0014648
        k(   66) = (   0.0000000   0.3750000   0.4375000), wk =   0.0058594
        k(   67) = (   0.0000000   0.3750000  -0.5000000), wk =   0.0058594
        k(   68) = (   0.0000000   0.3750000  -0.4375000), wk =   0.0058594
        k(   69) = (   0.0000000   0.3750000  -0.3750000), wk =   0.0029297
        k(   70) = (   0.0000000   0.4375000   0.4375000), wk =   0.0014648
        k(   71) = (   0.0000000   0.4375000  -0.5000000), wk =   0.0058594
        k(   72) = (   0.0000000   0.4375000  -0.4375000), wk =   0.0029297
        k(   73) = (   0.0000000  -0.5000000  -0.5000000), wk =   0.0007324
        k(   74) = (   0.0625000   0.1250000   0.1875000), wk =   0.0058594
        k(   75) = (   0.0625000   0.1250000   0.2500000), wk =   0.0117188
        k(   76) = (   0.0625000   0.1250000   0.3125000), wk =   0.0117188
        k(   77) = (   0.0625000   0.1250000   0.3750000), wk =   0.0117188
        k(   78) = (   0.0625000   0.1250000   0.4375000), wk =   0.0117188
        k(   79) = (   0.0625000   0.1250000  -0.5000000), wk =   0.0117188
        k(   80) = (   0.0625000   0.1250000  -0.4375000), wk =   0.0058594
        k(   81) = (   0.0625000   0.1875000   0.2500000), wk =   0.0058594
        k(   82) = (   0.0625000   0.1875000   0.3125000), wk =   0.0117188
        k(   83) = (   0.0625000   0.1875000   0.3750000), wk =   0.0117188
        k(   84) = (   0.0625000   0.1875000   0.4375000), wk =   0.0117188
        k(   85) = (   0.0625000   0.1875000  -0.5000000), wk =   0.0117188
        k(   86) = (   0.0625000   0.1875000  -0.4375000), wk =   0.0117188
        k(   87) = (   0.0625000   0.1875000  -0.3750000), wk =   0.0117188
        k(   88) = (   0.0625000   0.1875000  -0.3125000), wk =   0.0117188
        k(   89) = (   0.0625000   0.1875000  -0.2500000), wk =   0.0117188
        k(   90) = (   0.0625000   0.1875000  -0.1875000), wk =   0.0117188
        k(   91) = (   0.0625000   0.1875000  -0.1250000), wk =   0.0058594
        k(   92) = (   0.0625000   0.2500000   0.3125000), wk =   0.0058594
        k(   93) = (   0.0625000   0.2500000   0.3750000), wk =   0.0117188
        k(   94) = (   0.0625000   0.2500000   0.4375000), wk =   0.0117188
        k(   95) = (   0.0625000   0.2500000  -0.5000000), wk =   0.0117188
        k(   96) = (   0.0625000   0.2500000  -0.4375000), wk =   0.0117188
        k(   97) = (   0.0625000   0.2500000  -0.3750000), wk =   0.0117188
        k(   98) = (   0.0625000   0.2500000  -0.3125000), wk =   0.0117188
        k(   99) = (   0.0625000   0.2500000  -0.2500000), wk =   0.0117188
        k(  100) = (   0.0625000   0.2500000  -0.1875000), wk =   0.0058594
        k(  101) = (   0.0625000   0.3125000   0.3750000), wk =   0.0058594
        k(  102) = (   0.0625000   0.3125000   0.4375000), wk =   0.0117188
        k(  103) = (   0.0625000   0.3125000  -0.5000000), wk =   0.0117188
        k(  104) = (   0.0625000   0.3125000  -0.4375000), wk =   0.0117188
        k(  105) = (   0.0625000   0.3125000  -0.3750000), wk =   0.0117188
        k(  106) = (   0.0625000   0.3125000  -0.3125000), wk =   0.0117188
        k(  107) = (   0.0625000   0.3125000  -0.2500000), wk =   0.0058594
        k(  108) = (   0.0625000   0.3750000   0.4375000), wk =   0.0058594
        k(  109) = (   0.0625000   0.3750000  -0.5000000), wk =   0.0117188
        k(  110) = (   0.0625000   0.3750000  -0.4375000), wk =   0.0117188
        k(  111) = (   0.0625000   0.3750000  -0.3750000), wk =   0.0117188
        k(  112) = (   0.0625000   0.3750000  -0.3125000), wk =   0.0058594
        k(  113) = (   0.0625000   0.4375000  -0.5000000), wk =   0.0058594
        k(  114) = (   0.0625000   0.4375000  -0.4375000), wk =   0.0117188
        k(  115) = (   0.0625000   0.4375000  -0.3750000), wk =   0.0058594
        k(  116) = (   0.0625000  -0.5000000  -0.4375000), wk =   0.0029297
        k(  117) = (   0.1250000   0.2500000   0.3750000), wk =   0.0058594
        k(  118) = (   0.1250000   0.2500000   0.4375000), wk =   0.0117188
        k(  119) = (   0.1250000   0.2500000  -0.5000000), wk =   0.0117188
        k(  120) = (   0.1250000   0.2500000  -0.4375000), wk =   0.0117188
        k(  121) = (   0.1250000   0.2500000  -0.3750000), wk =   0.0058594
        k(  122) = (   0.1250000   0.3125000   0.4375000), wk =   0.0058594
        k(  123) = (   0.1250000   0.3125000  -0.5000000), wk =   0.0117188
        k(  124) = (   0.1250000   0.3125000  -0.4375000), wk =   0.0117188
        k(  125) = (   0.1250000   0.3125000  -0.3750000), wk =   0.0117188
        k(  126) = (   0.1250000   0.3125000  -0.3125000), wk =   0.0117188
        k(  127) = (   0.1250000   0.3125000  -0.2500000), wk =   0.0117188
        k(  128) = (   0.1250000   0.3125000  -0.1875000), wk =   0.0058594
        k(  129) = (   0.1250000   0.3750000  -0.5000000), wk =   0.0058594
        k(  130) = (   0.1250000   0.3750000  -0.4375000), wk =   0.0117188
        k(  131) = (   0.1250000   0.3750000  -0.3750000), wk =   0.0117188
        k(  132) = (   0.1250000   0.3750000  -0.3125000), wk =   0.0117188
        k(  133) = (   0.1250000   0.3750000  -0.2500000), wk =   0.0058594
        k(  134) = (   0.1250000   0.4375000  -0.4375000), wk =   0.0058594
        k(  135) = (   0.1250000   0.4375000  -0.3750000), wk =   0.0117188
        k(  136) = (   0.1250000   0.4375000  -0.3125000), wk =   0.0058594
        k(  137) = (   0.1250000  -0.5000000  -0.3750000), wk =   0.0029297
        k(  138) = (   0.1875000   0.3750000  -0.4375000), wk =   0.0058594
        k(  139) = (   0.1875000   0.3750000  -0.3750000), wk =   0.0117188
        k(  140) = (   0.1875000   0.3750000  -0.3125000), wk =   0.0058594
        k(  141) = (   0.1875000   0.4375000  -0.3750000), wk =   0.0058594
        k(  142) = (   0.1875000   0.4375000  -0.3125000), wk =   0.0117188
        k(  143) = (   0.1875000   0.4375000  -0.2500000), wk =   0.0058594
        k(  144) = (   0.1875000  -0.5000000  -0.3125000), wk =   0.0029297
        k(  145) = (   0.2500000  -0.5000000  -0.2500000), wk =   0.0014648

     Dense  grid:    35557 G-vectors     FFT dimensions: (  45,  45,  45)

     Largest allocated arrays     est. size (Mb)     dimensions
        Kohn-Sham Wavefunctions         0.31 Mb     (     570,   36)
        NL pseudopotentials             0.30 Mb     (     285,   68)
        Each V/rho on FFT grid          0.09 Mb     (    6075)
        Each G-vector array             0.02 Mb     (    2224)
        G-vector shells                 0.00 Mb     (     334)
     Largest temporary arrays     est. size (Mb)     dimensions
        Auxiliary wavefunctions         1.25 Mb     (     570,  144)
        Each subspace H/S matrix        0.32 Mb     (     144,  144)
        Each <psi_i|beta_j> matrix      0.07 Mb     (      68,   2,   36)
        Arrays for rho mixing           0.74 Mb     (    6075,    8)

     Check: negative/imaginary core charge=   -0.000028    0.000000

     Initial potential from superposition of free atoms

     starting charge   27.99781, renormalised to   28.00000
     Starting wfc are   36 randomized atomic wfcs
     Checking if some PAW data can be deallocated... 

     total cpu time spent up to now is       14.6 secs

     Self-consistent Calculation

     iteration #  1     ecut=    65.00 Ry     beta=0.70
     Davidson diagonalization with overlap
     ethr =  1.00E-02,  avg # of iterations =  4.0

     Threshold (ethr) on eigenvalues was too large:
     Diagonalizing with lowered threshold

     Davidson diagonalization with overlap
     ethr =  4.55E-05,  avg # of iterations =  4.2

     total cpu time spent up to now is      123.3 secs

     total energy              =    -885.88612576 Ry
     Harris-Foulkes estimate   =    -885.88896609 Ry
     estimated scf accuracy    <       0.01974292 Ry

     iteration #  2     ecut=    65.00 Ry     beta=0.70
     Davidson diagonalization with overlap
     ethr =  7.05E-05,  avg # of iterations =  1.0

     total cpu time spent up to now is      157.4 secs

     total energy              =    -885.88630670 Ry
     Harris-Foulkes estimate   =    -885.88659113 Ry
     estimated scf accuracy    <       0.00146074 Ry

     iteration #  3     ecut=    65.00 Ry     beta=0.70
     Davidson diagonalization with overlap
     ethr =  5.22E-06,  avg # of iterations =  2.6

     total cpu time spent up to now is      199.9 secs

     total energy              =    -885.88651287 Ry
     Harris-Foulkes estimate   =    -885.88658598 Ry
     estimated scf accuracy    <       0.00009542 Ry

     iteration #  4     ecut=    65.00 Ry     beta=0.70
     Davidson diagonalization with overlap
     ethr =  3.41E-07,  avg # of iterations =  3.0

     total cpu time spent up to now is      250.4 secs

     total energy              =    -885.88656061 Ry
     Harris-Foulkes estimate   =    -885.88656028 Ry
     estimated scf accuracy    <       0.00000471 Ry

     iteration #  5     ecut=    65.00 Ry     beta=0.70
     Davidson diagonalization with overlap
     ethr =  1.68E-08,  avg # of iterations =  2.5

     total cpu time spent up to now is      287.6 secs

     End of self-consistent calculation

          k = 0.0000 0.0000 0.0000 (  4477 PWs)   bands (ev):

   -14.5142 -14.5142 -14.5142 -14.5142 -14.4343 -14.4343 -14.4343 -14.4343
   -13.5864 -13.5864 -13.4178 -13.4178 -13.4178 -13.4178 -13.3802 -13.3802
   -13.3802 -13.3802 -13.2784 -13.2784  -2.5316  -2.5316   6.3585   6.3585
     7.1881   7.1881   7.8394   7.8394   7.8394   7.8394   9.3696   9.3696
     9.8446   9.8446   9.8446   9.8446

     occupation numbers 
     1.0000   1.0000   1.0000   1.0000   1.0000   1.0000   1.0000   1.0000
     1.0000   1.0000   1.0000   1.0000   1.0000   1.0000   1.0000   1.0000
     1.0000   1.0000   1.0000   1.0000   1.0000   1.0000   1.0000   1.0000
     1.0000   1.0000   0.0000   0.0000   0.0000   0.0000   0.0000   0.0000
     0.0000   0.0000   0.0000   0.0000

          k = 0.0442 0.0442-0.0442 (  4453 PWs)   bands (ev):

   -14.5146 -14.5146 -14.5134 -14.5134 -14.4351 -14.4351 -14.4338 -14.4338
   -13.5847 -13.5847 -13.4228 -13.4228 -13.4209 -13.4209 -13.3770 -13.3769
   -13.3760 -13.3760 -13.2794 -13.2794  -2.4969  -2.4969   5.9499   5.9499
     7.2347   7.2347   7.7646   7.7646   7.9001   7.9002   9.5275   9.5275
     9.9290   9.9290   9.9418   9.9418

     occupation numbers 
     1.0000   1.0000   1.0000   1.0000   1.0000   1.0000   1.0000   1.0000
     1.0000   1.0000   1.0000   1.0000   1.0000   1.0000   1.0000   1.0000
     1.0000   1.0000   1.0000   1.0000   1.0000   1.0000   1.0000   1.0000
     1.0000   1.0000   0.0000   0.0000   0.0000   0.0000   0.0000   0.0000
     0.0000   0.0000   0.0000   0.0000

          k = 0.0884 0.0884-0.0884 (  4456 PWs)   bands (ev):

   -14.5156 -14.5156 -14.5111 -14.5111 -14.4373 -14.4373 -14.4324 -14.4323
   -13.5795 -13.5795 -13.4337 -13.4337 -13.4279 -13.4277 -13.3696 -13.3694
   -13.3671 -13.3671 -13.2821 -13.2821  -2.3937  -2.3937   5.1869   5.1869
     7.1284   7.1284   7.5827   7.5827   7.9480   7.9480   9.8545   9.8545
    10.1796  10.1796  10.2879  10.2879

     occupation numbers 
     1.0000   1.0000   1.0000   1.0000   1.0000   1.0000   1.0000   1.0000
     1.0000   1.0000   1.0000   1.0000   1.0000   1.0000   1.0000   1.0000
     1.0000   1.0000   1.0000   1.0000   1.0000   1.0000   1.0000   1.0000
     1.0000   1.0000   1.0000   1.0000   0.0000   0.0000   0.0000   0.0000
     0.0000   0.0000   0.0000   0.0000

          k = 0.1326 0.1326-0.1326 (  4444 PWs)   bands (ev):

   -14.5171 -14.5171 -14.5075 -14.5075 -14.4408 -14.4408 -14.4303 -14.4302
   -13.5714 -13.5714 -13.4466 -13.4466 -13.4357 -13.4356 -13.3609 -13.3608
   -13.3574 -13.3574 -13.2864 -13.2864  -2.2248  -2.2248   4.3591   4.3591
     6.9330   6.9330   7.3644   7.3644   7.8710   7.8710  10.1410  10.1410
    10.4549  10.4549  10.9594  10.9594

     occupation numbers 
     1.0000   1.0000   1.0000   1.0000   1.0000   1.0000   1.0000   1.0000
     1.0000   1.0000   1.0000   1.0000   1.0000   1.0000   1.0000   1.0000
     1.0000   1.0000   1.0000   1.0000   1.0000   1.0000   1.0000   1.0000
     1.0000   1.0000   1.0000   1.0000   0.0000   0.0000   0.0000   0.0000
     0.0000   0.0000   0.0000   0.0000

          k = 0.1768 0.1768-0.1768 (  4432 PWs)   bands (ev):

   -14.5187 -14.5187 -14.5027 -14.5027 -14.4454 -14.4454 -14.4280 -14.4280
   -13.5611 -13.5611 -13.4600 -13.4600 -13.4431 -13.4430 -13.3525 -13.3524
   -13.3482 -13.3482 -13.2919 -13.2919  -1.9966  -1.9966   3.5493   3.5493
     6.7329   6.7329   7.1555   7.1555   7.7336   7.7336  10.3725  10.3725
    10.6785  10.6785  11.7705  11.7705

     occupation numbers 
     1.0000   1.0000   1.0000   1.0000   1.0000   1.0000   1.0000   1.0000
     1.0000   1.0000   1.0000   1.0000   1.0000   1.0000   1.0000   1.0000
     1.0000   1.0000   1.0000   1.0000   1.0000   1.0000   1.0000   1.0000
     1.0000   1.0000   1.0000   1.0000   0.0000   0.0000   0.0000   0.0000
     0.0000   0.0000   0.0000   0.0000

          k = 0.2210 0.2210-0.2210 (  4438 PWs)   bands (ev):

   -14.5202 -14.5202 -14.4970 -14.4970 -14.4508 -14.4508 -14.4259 -14.4258
   -13.5493 -13.5493 -13.4732 -13.4732 -13.4492 -13.4491 -13.3453 -13.3452
   -13.3398 -13.3398 -13.2983 -13.2983  -1.7221  -1.7221   2.8028   2.8028
     6.5610   6.5610   6.9795   6.9795   7.5954   7.5954  10.5220  10.5220
    10.8054  10.8054  12.6334  12.6335

     occupation numbers 
     1.0000   1.0000   1.0000   1.0000   1.0000   1.0000   1.0000   1.0000
     1.0000   1.0000   1.0000   1.0000   1.0000   1.0000   1.0000   1.0000
     1.0000   1.0000   1.0000   1.0000   1.0000   1.0000   1.0000   1.0000
     1.0000   1.0000   1.0000   1.0000   0.1250   0.1250   0.0000   0.0000
     0.0000   0.0000   0.0000   0.0000

          k = 0.2652 0.2652-0.2652 (  4437 PWs)   bands (ev):

   -14.5214 -14.5213 -14.4910 -14.4910 -14.4567 -14.4567 -14.4241 -14.4240
   -13.5369 -13.5369 -13.4859 -13.4859 -13.4539 -13.4538 -13.3398 -13.3398
   -13.3322 -13.3322 -13.3050 -13.3050  -1.4294  -1.4294   2.1640   2.1640
     6.4317   6.4317   6.8482   6.8482   7.4851   7.4851  10.5918  10.5918
    10.8493  10.8493  13.3061  13.3061

     occupation numbers 
     1.0000   1.0000   1.0000   1.0000   1.0000   1.0000   1.0000   1.0000
     1.0000   1.0000   1.0000   1.0000   1.0000   1.0000   1.0000   1.0000
     1.0000   1.0000   1.0000   1.0000   1.0000   1.0000   1.0000   1.0000
     1.0000   1.0000   1.0000   1.0000   1.0000   1.0000   0.0000   0.0000
     0.0000   0.0000   0.0000   0.0000

          k = 0.3094 0.3094-0.3094 (  4431 PWs)   bands (ev):

   -14.5221 -14.5221 -14.4855 -14.4855 -14.4620 -14.4620 -14.4230 -14.4229
   -13.5247 -13.5247 -13.4979 -13.4979 -13.4567 -13.4567 -13.3364 -13.3364
   -13.3253 -13.3253 -13.3117 -13.3117  -1.1784  -1.1784   1.7022   1.7022
     6.3521   6.3521   6.7675   6.7675   7.4155   7.4155  10.6137  10.6137
    10.8528  10.8528  13.3472  13.3472

     occupation numbers 
     1.0000   1.0000   1.0000   1.0000   1.0000   1.0000   1.0000   1.0000
     1.0000   1.0000   1.0000   1.0000   1.0000   1.0000   1.0000   1.0000
     1.0000   1.0000   1.0000   1.0000   1.0000   1.0000   1.0000   1.0000
     1.0000   1.0000   1.0000   1.0000   1.0000   1.0000   0.0000   0.0000
     0.0000   0.0000   0.0000   0.0000

          k =-0.3536-0.3536 0.3536 (  4446 PWs)   bands (ev):

   -14.5224 -14.5224 -14.4829 -14.4829 -14.4646 -14.4646 -14.4226 -14.4226
   -13.5161 -13.5161 -13.5064 -13.5064 -13.4576 -13.4576 -13.3352 -13.3352
   -13.3199 -13.3199 -13.3172 -13.3172  -1.0723  -1.0723   1.5253   1.5253
     6.3252   6.3252   6.7404   6.7404   7.3918   7.3918  10.6173  10.6173
    10.8500  10.8500  13.3240  13.3240

     occupation numbers 
     1.0000   1.0000   1.0000   1.0000   1.0000   1.0000   1.0000   1.0000
     1.0000   1.0000   1.0000   1.0000   1.0000   1.0000   1.0000   1.0000
     1.0000   1.0000   1.0000   1.0000   1.0000   1.0000   1.0000   1.0000
     1.0000   1.0000   1.0000   1.0000   1.0000   1.0000   0.0000   0.0000
     0.0000   0.0000   0.0000   0.0000

          k = 0.0884 0.0000 0.0000 (  4453 PWs)   bands (ev):

   -14.5143 -14.5143 -14.5136 -14.5136 -14.4350 -14.4350 -14.4339 -14.4339
   -13.5841 -13.5841 -13.4251 -13.4251 -13.4208 -13.4208 -13.3763 -13.3763
   -13.3746 -13.3746 -13.2797 -13.2797  -2.4853  -2.4853   5.8690   5.8690
     7.1676   7.1676   7.5839   7.5839   8.1572   8.1572   9.4477   9.4477
     9.9405   9.9405  10.0757  10.0757

     occupation numbers 
     1.0000   1.0000   1.0000   1.0000   1.0000   1.0000   1.0000   1.0000
     1.0000   1.0000   1.0000   1.0000   1.0000   1.0000   1.0000   1.0000
     1.0000   1.0000   1.0000   1.0000   1.0000   1.0000   1.0000   1.0000
     1.0000   1.0000   1.0000   1.0000   0.0000   0.0000   0.0000   0.0000
     0.0000   0.0000   0.0000   0.0000

          k = 0.1326 0.0442-0.0442 (  4445 PWs)   bands (ev):

   -14.5151 -14.5150 -14.5119 -14.5119 -14.4366 -14.4366 -14.4329 -14.4328
   -13.5800 -13.5800 -13.4339 -13.4339 -13.4256 -13.4256 -13.3712 -13.3711
   -13.3674 -13.3674 -13.2817 -13.2817  -2.4047  -2.4047   5.3035   5.3035
     7.0287   7.0287   7.3734   7.3734   8.3602   8.3602   9.5175   9.5176
    10.2265  10.2265  10.3785  10.3785

     occupation numbers 
     1.0000   1.0000   1.0000   1.0000   1.0000   1.0000   1.0000   1.0000
     1.0000   1.0000   1.0000   1.0000   1.0000   1.0000   1.0000   1.0000
     1.0000   1.0000   1.0000   1.0000   1.0000   1.0000   1.0000   1.0000
     1.0000   1.0000   1.0000   1.0000   0.0000   0.0000   0.0000   0.0000
     0.0000   0.0000   0.0000   0.0000

          k = 0.1768 0.0884-0.0884 (  4446 PWs)   bands (ev):

   -14.5165 -14.5164 -14.5087 -14.5087 -14.4397 -14.4397 -14.4310 -14.4309
   -13.5729 -13.5729 -13.4456 -13.4456 -13.4326 -13.4325 -13.3647 -13.3646
   -13.3575 -13.3575 -13.2853 -13.2853  -2.2573  -2.2573   4.5513   4.5513
     6.8243   6.8243   7.1554   7.1554   8.3566   8.3566   9.7608   9.7608
    10.5603  10.5603  10.8947  10.8947

     occupation numbers 
     1.0000   1.0000   1.0000   1.0000   1.0000   1.0000   1.0000   1.0000
     1.0000   1.0000   1.0000   1.0000   1.0000   1.0000   1.0000   1.0000
     1.0000   1.0000   1.0000   1.0000   1.0000   1.0000   1.0000   1.0000
     1.0000   1.0000   1.0000   1.0000   0.0000   0.0000   0.0000   0.0000
     0.0000   0.0000   0.0000   0.0000

          k = 0.2210 0.1326-0.1326 (  4437 PWs)   bands (ev):

   -14.5181 -14.5180 -14.5042 -14.5042 -14.4440 -14.4440 -14.4287 -14.4286
   -13.5634 -13.5634 -13.4581 -13.4581 -13.4399 -13.4398 -13.3582 -13.3581
   -13.3475 -13.3474 -13.2901 -13.2901  -2.0479  -2.0479   3.7650   3.7650
     6.6088   6.6089   6.9380   6.9381   8.2408   8.2408  10.0646  10.0646
    10.8160  10.8160  11.5367  11.5367

     occupation numbers 
     1.0000   1.0000   1.0000   1.0000   1.0000   1.0000   1.0000   1.0000
     1.0000   1.0000   1.0000   1.0000   1.0000   1.0000   1.0000   1.0000
     1.0000   1.0000   1.0000   1.0000   1.0000   1.0000   1.0000   1.0000
     1.0000   1.0000   1.0000   1.0000   0.0000   0.0000   0.0000   0.0000
     0.0000   0.0000   0.0000   0.0000

          k = 0.2652 0.1768-0.1768 (  4437 PWs)   bands (ev):

   -14.5197 -14.5196 -14.4989 -14.4988 -14.4493 -14.4492 -14.4264 -14.4263
   -13.5522 -13.5522 -13.4706 -13.4706 -13.4463 -13.4463 -13.3524 -13.3524
   -13.3384 -13.3383 -13.2955 -13.2955  -1.7867  -1.7867   3.0128   3.0128
     6.4144   6.4144   6.7519   6.7519   8.0982   8.0982  10.3174  10.3174
    10.9571  10.9571  12.2161  12.2161

     occupation numbers 
     1.0000   1.0000   1.0000   1.0000   1.0000   1.0000   1.0000   1.0000
     1.0000   1.0000   1.0000   1.0000   1.0000   1.0000   1.0000   1.0000
     1.0000   1.0000   1.0000   1.0000   1.0000   1.0000   1.0000   1.0000
     1.0000   1.0000   1.0000   1.0000   0.0000   0.0000   0.0000   0.0000
     0.0000   0.0000   0.0000   0.0000

          k = 0.3094 0.2210-0.2210 (  4431 PWs)   bands (ev):

   -14.5210 -14.5209 -14.4930 -14.4929 -14.4551 -14.4550 -14.4244 -14.4243
   -13.5402 -13.5402 -13.4826 -13.4826 -13.4516 -13.4515 -13.3477 -13.3477
   -13.3308 -13.3308 -13.3011 -13.3011  -1.4952  -1.4952   2.3437   2.3437
     6.2544   6.2544   6.6173   6.6173   7.9710   7.9710  10.4739  10.4739
    10.9901  10.9901  12.8846  12.8846

     occupation numbers 
     1.0000   1.0000   1.0000   1.0000   1.0000   1.0000   1.0000   1.0000
     1.0000   1.0000   1.0000   1.0000   1.0000   1.0000   1.0000   1.0000
     1.0000   1.0000   1.0000   1.0000   1.0000   1.0000   1.0000   1.0000
     1.0000   1.0000   1.0000   1.0000   0.0000   0.0000   0.0000   0.0000
     0.0000   0.0000   0.0000   0.0000

          k = 0.3536 0.2652-0.2652 (  4435 PWs)   bands (ev):

   -14.5219 -14.5218 -14.4872 -14.4871 -14.4608 -14.4606 -14.4230 -14.4229
   -13.5283 -13.5283 -13.4940 -13.4939 -13.4551 -13.4551 -13.3445 -13.3444
   -13.3251 -13.3251 -13.3060 -13.3059  -1.2201  -1.2201   1.8186   1.8186
     6.1361   6.1362   6.5430   6.5430   7.8780   7.8781  10.5582  10.5582
    10.9602  10.9602  13.3271  13.3271

     occupation numbers 
     1.0000   1.0000   1.0000   1.0000   1.0000   1.0000   1.0000   1.0000
     1.0000   1.0000   1.0000   1.0000   1.0000   1.0000   1.0000   1.0000
     1.0000   1.0000   1.0000   1.0000   1.0000   1.0000   1.0000   1.0000
     1.0000   1.0000   1.0000   1.0000   0.0000   0.0000   0.0000   0.0000
     0.0000   0.0000   0.0000   0.0000

          k =-0.3094-0.3977 0.3977 (  4433 PWs)   bands (ev):

   -14.5223 -14.5223 -14.4832 -14.4830 -14.4648 -14.4646 -14.4223 -14.4223
   -13.5184 -13.5184 -13.5034 -13.5034 -13.4568 -13.4568 -13.3430 -13.3430
   -13.3218 -13.3218 -13.3090 -13.3090  -1.0526  -1.0526   1.5362   1.5362
     6.0657   6.0657   6.5307   6.5307   7.8279   7.8279  10.6098  10.6098
    10.9126  10.9126  13.4293  13.4293

     occupation numbers 
     1.0000   1.0000   1.0000   1.0000   1.0000   1.0000   1.0000   1.0000
     1.0000   1.0000   1.0000   1.0000   1.0000   1.0000   1.0000   1.0000
     1.0000   1.0000   1.0000   1.0000   1.0000   1.0000   1.0000   1.0000
     1.0000   1.0000   1.0000   1.0000   0.0000   0.0000   0.0000   0.0000
     0.0000   0.0000   0.0000   0.0000

          k =-0.2652-0.3536 0.3536 (  4428 PWs)   bands (ev):

   -14.5222 -14.5222 -14.4841 -14.4839 -14.4639 -14.4637 -14.4224 -14.4224
   -13.5212 -13.5211 -13.5008 -13.5007 -13.4564 -13.4564 -13.3435 -13.3435
   -13.3222 -13.3222 -13.3084 -13.3084  -1.0895  -1.0895   1.5964   1.5964
     6.0476   6.0477   6.5785   6.5786   7.8237   7.8237  10.6429  10.6429
    10.8770  10.8770  13.4413  13.4413

     occupation numbers 
     1.0000   1.0000   1.0000   1.0000   1.0000   1.0000   1.0000   1.0000
     1.0000   1.0000   1.0000   1.0000   1.0000   1.0000   1.0000   1.0000
     1.0000   1.0000   1.0000   1.0000   1.0000   1.0000   1.0000   1.0000
     1.0000   1.0000   1.0000   1.0000   0.0000   0.0000   0.0000   0.0000
     0.0000   0.0000   0.0000   0.0000

          k =-0.2210-0.3094 0.3094 (  4440 PWs)   bands (ev):

   -14.5217 -14.5216 -14.4889 -14.4888 -14.4591 -14.4590 -14.4233 -14.4232
   -13.5322 -13.5322 -13.4903 -13.4903 -13.4540 -13.4540 -13.3459 -13.3459
   -13.3262 -13.3261 -13.3046 -13.3046  -1.3059  -1.3059   1.9735   1.9735
     6.0855   6.0856   6.6823   6.6823   7.8648   7.8648  10.6364  10.6364
    10.8679  10.8679  13.3151  13.3151

     occupation numbers 
     1.0000   1.0000   1.0000   1.0000   1.0000   1.0000   1.0000   1.0000
     1.0000   1.0000   1.0000   1.0000   1.0000   1.0000   1.0000   1.0000
     1.0000   1.0000   1.0000   1.0000   1.0000   1.0000   1.0000   1.0000
     1.0000   1.0000   1.0000   1.0000   0.0000   0.0000   0.0000   0.0000
     0.0000   0.0000   0.0000   0.0000

          k =-0.1768-0.2652 0.2652 (  4446 PWs)   bands (ev):

   -14.5207 -14.5206 -14.4948 -14.4948 -14.4533 -14.4532 -14.4249 -14.4248
   -13.5443 -13.5442 -13.4787 -13.4787 -13.4498 -13.4497 -13.3499 -13.3499
   -13.3323 -13.3323 -13.2994 -13.2994  -1.5942  -1.5942   2.5554   2.5554
     6.1815   6.1815   6.8354   6.8354   7.9466   7.9466  10.5615  10.5616
    10.8568  10.8568  12.7374  12.7375

     occupation numbers 
     1.0000   1.0000   1.0000   1.0000   1.0000   1.0000   1.0000   1.0000
     1.0000   1.0000   1.0000   1.0000   1.0000   1.0000   1.0000   1.0000
     1.0000   1.0000   1.0000   1.0000   1.0000   1.0000   1.0000   1.0000
     1.0000   1.0000   1.0000   1.0000   0.0000   0.0000   0.0000   0.0000
     0.0000   0.0000   0.0000   0.0000

          k =-0.1326-0.2210 0.2210 (  4439 PWs)   bands (ev):

   -14.5193 -14.5192 -14.5006 -14.5005 -14.4477 -14.4476 -14.4270 -14.4269
   -13.5561 -13.5561 -13.4665 -13.4665 -13.4441 -13.4440 -13.3552 -13.3551
   -13.3403 -13.3403 -13.2938 -13.2938  -1.8791  -1.8791   3.2567   3.2567
     6.3360   6.3360   7.0276   7.0276   8.0568   8.0569  10.4044  10.4044
    10.7613  10.7613  12.0086  12.0087

     occupation numbers 
     1.0000   1.0000   1.0000   1.0000   1.0000   1.0000   1.0000   1.0000
     1.0000   1.0000   1.0000   1.0000   1.0000   1.0000   1.0000   1.0000
     1.0000   1.0000   1.0000   1.0000   1.0000   1.0000   1.0000   1.0000
     1.0000   1.0000   1.0000   1.0000   0.0000   0.0000   0.0000   0.0000
     0.0000   0.0000   0.0000   0.0000

          k =-0.0884-0.1768 0.1768 (  4436 PWs)   bands (ev):

   -14.5177 -14.5176 -14.5056 -14.5056 -14.4427 -14.4427 -14.4293 -14.4292
   -13.5668 -13.5668 -13.4540 -13.4540 -13.4373 -13.4372 -13.3613 -13.3613
   -13.3498 -13.3497 -13.2885 -13.2884  -2.1245  -2.1245   4.0228   4.0229
     6.5474   6.5475   7.2416   7.2416   8.1673   8.1673  10.1719  10.1719
    10.5092  10.5092  11.3515  11.3515

     occupation numbers 
     1.0000   1.0000   1.0000   1.0000   1.0000   1.0000   1.0000   1.0000
     1.0000   1.0000   1.0000   1.0000   1.0000   1.0000   1.0000   1.0000
     1.0000   1.0000   1.0000   1.0000   1.0000   1.0000   1.0000   1.0000
     1.0000   1.0000   1.0000   1.0000   0.0000   0.0000   0.0000   0.0000
     0.0000   0.0000   0.0000   0.0000

          k =-0.0442-0.1326 0.1326 (  4445 PWs)   bands (ev):

   -14.5162 -14.5161 -14.5096 -14.5096 -14.4388 -14.4388 -14.4315 -14.4314
   -13.5756 -13.5756 -13.4415 -13.4414 -13.4303 -13.4302 -13.3678 -13.3677
   -13.3600 -13.3599 -13.2840 -13.2840  -2.3139  -2.3139   4.8002   4.8002
     6.8091   6.8092   7.4474   7.4475   8.2160   8.2160   9.9055   9.9055
    10.1653  10.1653  10.7813  10.7813

     occupation numbers 
     1.0000   1.0000   1.0000   1.0000   1.0000   1.0000   1.0000   1.0000
     1.0000   1.0000   1.0000   1.0000   1.0000   1.0000   1.0000   1.0000
     1.0000   1.0000   1.0000   1.0000   1.0000   1.0000   1.0000   1.0000
     1.0000   1.0000   1.0000   1.0000   0.0000   0.0000   0.0000   0.0000
     0.0000   0.0000   0.0000   0.0000

          k = 0.0000-0.0884 0.0884 (  4451 PWs)   bands (ev):

   -14.5151 -14.5150 -14.5123 -14.5123 -14.4362 -14.4362 -14.4331 -14.4330
   -13.5818 -13.5818 -13.4301 -13.4301 -13.4242 -13.4241 -13.3736 -13.3735
   -13.3698 -13.3697 -13.2809 -13.2809  -2.4393  -2.4393   5.5022   5.5022
     7.0897   7.0897   7.6099   7.6099   8.1093   8.1094   9.6630   9.6631
     9.9491   9.9491  10.2791  10.2792

     occupation numbers 
     1.0000   1.0000   1.0000   1.0000   1.0000   1.0000   1.0000   1.0000
     1.0000   1.0000   1.0000   1.0000   1.0000   1.0000   1.0000   1.0000
     1.0000   1.0000   1.0000   1.0000   1.0000   1.0000   1.0000   1.0000
     1.0000   1.0000   0.0000   0.0000   0.0000   0.0000   0.0000   0.0000
     0.0000   0.0000   0.0000   0.0000

          k = 0.1768 0.0000 0.0000 (  4464 PWs)   bands (ev):

   -14.5144 -14.5144 -14.5119 -14.5119 -14.4368 -14.4368 -14.4330 -14.4330
   -13.5772 -13.5772 -13.4399 -13.4399 -13.4273 -13.4273 -13.3668 -13.3668
   -13.3653 -13.3653 -13.2828 -13.2828  -2.3467  -2.3467   5.0541   5.0541
     6.8385   6.8385   7.0949   7.0949   8.8248   8.8248   9.2146   9.2146
    10.5268  10.5268  10.6330  10.6330

     occupation numbers 
     1.0000   1.0000   1.0000   1.0000   1.0000   1.0000   1.0000   1.0000
     1.0000   1.0000   1.0000   1.0000   1.0000   1.0000   1.0000   1.0000
     1.0000   1.0000   1.0000   1.0000   1.0000   1.0000   1.0000   1.0000
     1.0000   1.0000   1.0000   1.0000   0.0000   0.0000   0.0000   0.0000
     0.0000   0.0000   0.0000   0.0000

          k = 0.2210 0.0442-0.0442 (  4454 PWs)   bands (ev):

   -14.5154 -14.5153 -14.5096 -14.5096 -14.4391 -14.4391 -14.4317 -14.4316
   -13.5712 -13.5712 -13.4492 -13.4492 -13.4319 -13.4319 -13.3635 -13.3635
   -13.3570 -13.3570 -13.2854 -13.2854  -2.2211  -2.2211   4.5121   4.5121
     6.6192   6.6192   6.8535   6.8535   8.9726   8.9728   9.2435   9.2436
    10.8988  10.8988  11.0292  11.0293

     occupation numbers 
     1.0000   1.0000   1.0000   1.0000   1.0000   1.0000   1.0000   1.0000
     1.0000   1.0000   1.0000   1.0000   1.0000   1.0000   1.0000   1.0000
     1.0000   1.0000   1.0000   1.0000   1.0000   1.0000   1.0000   1.0000
     1.0000   1.0000   1.0000   1.0000   0.0000   0.0000   0.0000   0.0000
     0.0000   0.0000   0.0000   0.0000

          k = 0.2652 0.0884-0.0884 (  4444 PWs)   bands (ev):

   -14.5170 -14.5169 -14.5056 -14.5056 -14.4429 -14.4429 -14.4294 -14.4294
   -13.5627 -13.5627 -13.4601 -13.4601 -13.4375 -13.4375 -13.3609 -13.3609
   -13.3468 -13.3467 -13.2889 -13.2889  -2.0315  -2.0315   3.8378   3.8378
     6.3697   6.3697   6.6317   6.6318   8.9008   8.9009   9.5307   9.5307
    11.1957  11.1957  11.4571  11.4571

     occupation numbers 
     1.0000   1.0000   1.0000   1.0000   1.0000   1.0000   1.0000   1.0000
     1.0000   1.0000   1.0000   1.0000   1.0000   1.0000   1.0000   1.0000
     1.0000   1.0000   1.0000   1.0000   1.0000   1.0000   1.0000   1.0000
     1.0000   1.0000   1.0000   1.0000   0.0000   0.0000   0.0000   0.0000
     0.0000   0.0000   0.0000   0.0000

          k = 0.3094 0.1326-0.1326 (  4431 PWs)   bands (ev):

   -14.5187 -14.5186 -14.5007 -14.5006 -14.4479 -14.4478 -14.4270 -14.4269
   -13.5524 -13.5524 -13.4711 -13.4711 -13.4431 -13.4430 -13.3588 -13.3588
   -13.3373 -13.3372 -13.2927 -13.2927  -1.7859  -1.7859   3.1375   3.1375
     6.1153   6.1153   6.4547   6.4547   8.7668   8.7668   9.9018   9.9019
    11.3678  11.3678  11.7810  11.7810

     occupation numbers 
     1.0000   1.0000   1.0000   1.0000   1.0000   1.0000   1.0000   1.0000
     1.0000   1.0000   1.0000   1.0000   1.0000   1.0000   1.0000   1.0000
     1.0000   1.0000   1.0000   1.0000   1.0000   1.0000   1.0000   1.0000
     1.0000   1.0000   1.0000   1.0000   0.0000   0.0000   0.0000   0.0000
     0.0000   0.0000   0.0000   0.0000

          k = 0.3536 0.1768-0.1768 (  4442 PWs)   bands (ev):

   -14.5202 -14.5201 -14.4950 -14.4949 -14.4535 -14.4534 -14.4246 -14.4246
   -13.5413 -13.5412 -13.4814 -13.4814 -13.4481 -13.4481 -13.3573 -13.3573
   -13.3298 -13.3297 -13.2960 -13.2960  -1.5004  -1.5004   2.4778   2.4778
     5.8829   5.8829   6.3407   6.3407   8.6281   8.6282  10.2205  10.2205
    11.4063  11.4063  12.1413  12.1413

     occupation numbers 
     1.0000   1.0000   1.0000   1.0000   1.0000   1.0000   1.0000   1.0000
     1.0000   1.0000   1.0000   1.0000   1.0000   1.0000   1.0000   1.0000
     1.0000   1.0000   1.0000   1.0000   1.0000   1.0000   1.0000   1.0000
     1.0000   1.0000   1.0000   1.0000   0.0000   0.0000   0.0000   0.0000
     0.0000   0.0000   0.0000   0.0000

          k = 0.3977 0.2210-0.2210 (  4430 PWs)   bands (ev):

   -14.5213 -14.5213 -14.4893 -14.4891 -14.4594 -14.4592 -14.4228 -14.4228
   -13.5304 -13.5304 -13.4908 -13.4907 -13.4520 -13.4520 -13.3566 -13.3566
   -13.3248 -13.3248 -13.2981 -13.2981  -1.2107  -1.2107   1.9207   1.9207
     5.6930   5.6930   6.2923   6.2923   8.5143   8.5143  10.4195  10.4195
    11.3522  11.3522  12.6566  12.6566

     occupation numbers 
     1.0000   1.0000   1.0000   1.0000   1.0000   1.0000   1.0000   1.0000
     1.0000   1.0000   1.0000   1.0000   1.0000   1.0000   1.0000   1.0000
     1.0000   1.0000   1.0000   1.0000   1.0000   1.0000   1.0000   1.0000
     1.0000   1.0000   1.0000   1.0000   0.0000   0.0000   0.0000   0.0000
     0.0000   0.0000   0.0000   0.0000

          k =-0.2652-0.4419 0.4419 (  4438 PWs)   bands (ev):

   -14.5220 -14.5220 -14.4844 -14.4840 -14.4645 -14.4641 -14.4217 -14.4216
   -13.5217 -13.5217 -13.4983 -13.4982 -13.4543 -13.4543 -13.3565 -13.3565
   -13.3224 -13.3223 -13.2989 -13.2989  -0.9927  -0.9927   1.5560   1.5560
     5.5578   5.5579   6.3079   6.3079   8.4388   8.4388  10.5395  10.5395
    11.2547  11.2547  13.2224  13.2224

     occupation numbers 
     1.0000   1.0000   1.0000   1.0000   1.0000   1.0000   1.0000   1.0000
     1.0000   1.0000   1.0000   1.0000   1.0000   1.0000   1.0000   1.0000
     1.0000   1.0000   1.0000   1.0000   1.0000   1.0000   1.0000   1.0000
     1.0000   1.0000   1.0000   1.0000   0.0000   0.0000   0.0000   0.0000
     0.0000   0.0000   0.0000   0.0000

          k =-0.2210-0.3977 0.3977 (  4434 PWs)   bands (ev):

   -14.5222 -14.5222 -14.4830 -14.4826 -14.4660 -14.4655 -14.4214 -14.4213
   -13.5201 -13.5201 -13.4998 -13.4997 -13.4544 -13.4544 -13.3571 -13.3570
   -13.3216 -13.3216 -13.2991 -13.2991  -0.9574  -0.9574   1.5009   1.5009
     5.4852   5.4852   6.3843   6.3843   8.4066   8.4066  10.6366  10.6366
    11.1434  11.1434  13.5277  13.5277

     occupation numbers 
     1.0000   1.0000   1.0000   1.0000   1.0000   1.0000   1.0000   1.0000
     1.0000   1.0000   1.0000   1.0000   1.0000   1.0000   1.0000   1.0000
     1.0000   1.0000   1.0000   1.0000   1.0000   1.0000   1.0000   1.0000
     1.0000   1.0000   1.0000   1.0000   0.0000   0.0000   0.0000   0.0000
     0.0000   0.0000   0.0000   0.0000

          k =-0.1768-0.3536 0.3536 (  4441 PWs)   bands (ev):

   -14.5219 -14.5218 -14.4865 -14.4862 -14.4624 -14.4621 -14.4219 -14.4219
   -13.5274 -13.5274 -13.4936 -13.4935 -13.4523 -13.4523 -13.3581 -13.3580
   -13.3223 -13.3223 -13.2989 -13.2988  -1.1291  -1.1291   1.7798   1.7798
     5.4812   5.4813   6.5162   6.5162   8.4167   8.4167  10.7255  10.7255
    11.0277  11.0277  13.2687  13.2688

     occupation numbers 
     1.0000   1.0000   1.0000   1.0000   1.0000   1.0000   1.0000   1.0000
     1.0000   1.0000   1.0000   1.0000   1.0000   1.0000   1.0000   1.0000
     1.0000   1.0000   1.0000   1.0000   1.0000   1.0000   1.0000   1.0000
     1.0000   1.0000   1.0000   1.0000   0.0000   0.0000   0.0000   0.0000
     0.0000   0.0000   0.0000   0.0000

          k =-0.1326-0.3094 0.3094 (  4429 PWs)   bands (ev):

   -14.5211 -14.5210 -14.4920 -14.4918 -14.4569 -14.4567 -14.4232 -14.4232
   -13.5379 -13.5378 -13.4848 -13.4848 -13.4485 -13.4485 -13.3595 -13.3595
   -13.3254 -13.3253 -13.2975 -13.2975  -1.4067  -1.4067   2.2858   2.2858
     5.5528   5.5529   6.6951   6.6951   8.4616   8.4617  10.7442  10.7442
    10.9297  10.9297  12.6200  12.6200

     occupation numbers 
     1.0000   1.0000   1.0000   1.0000   1.0000   1.0000   1.0000   1.0000
     1.0000   1.0000   1.0000   1.0000   1.0000   1.0000   1.0000   1.0000
     1.0000   1.0000   1.0000   1.0000   1.0000   1.0000   1.0000   1.0000
     1.0000   1.0000   1.0000   1.0000   0.0000   0.0000   0.0000   0.0000
     0.0000   0.0000   0.0000   0.0000

          k =-0.0884-0.2652 0.2652 (  4446 PWs)   bands (ev):

   -14.5199 -14.5198 -14.4976 -14.4975 -14.4512 -14.4511 -14.4252 -14.4251
   -13.5490 -13.5490 -13.4749 -13.4749 -13.4437 -13.4436 -13.3614 -13.3614
   -13.3313 -13.3313 -13.2947 -13.2946  -1.6986  -1.6986   2.9127   2.9128
     5.7091   5.7091   6.9070   6.9070   8.5224   8.5224  10.5856  10.5856
    10.8438  10.8438  12.0129  12.0130

     occupation numbers 
     1.0000   1.0000   1.0000   1.0000   1.0000   1.0000   1.0000   1.0000
     1.0000   1.0000   1.0000   1.0000   1.0000   1.0000   1.0000   1.0000
     1.0000   1.0000   1.0000   1.0000   1.0000   1.0000   1.0000   1.0000
     1.0000   1.0000   1.0000   1.0000   0.0000   0.0000   0.0000   0.0000
     0.0000   0.0000   0.0000   0.0000

          k =-0.0442-0.2210 0.2210 (  4432 PWs)   bands (ev):

   -14.5185 -14.5184 -14.5027 -14.5027 -14.4460 -14.4460 -14.4275 -14.4274
   -13.5596 -13.5596 -13.4640 -13.4640 -13.4385 -13.4384 -13.3636 -13.3636
   -13.3398 -13.3398 -13.2909 -13.2909  -1.9590  -1.9590   3.5873   3.5874
     5.9641   5.9641   7.1287   7.1287   8.5553   8.5553  10.3357  10.3357
    10.5796  10.5796  11.6259  11.6259

     occupation numbers 
     1.0000   1.0000   1.0000   1.0000   1.0000   1.0000   1.0000   1.0000
     1.0000   1.0000   1.0000   1.0000   1.0000   1.0000   1.0000   1.0000
     1.0000   1.0000   1.0000   1.0000   1.0000   1.0000   1.0000   1.0000
     1.0000   1.0000   1.0000   1.0000   0.0000   0.0000   0.0000   0.0000
     0.0000   0.0000   0.0000   0.0000

          k = 0.0000-0.1768 0.1768 (  4443 PWs)   bands (ev):

   -14.5172 -14.5171 -14.5068 -14.5068 -14.4418 -14.4417 -14.4298 -14.4297
   -13.5688 -13.5688 -13.4525 -13.4525 -13.4338 -13.4337 -13.3659 -13.3658
   -13.3499 -13.3498 -13.2871 -13.2871  -2.1674  -2.1674   4.2416   4.2416
     6.3351   6.3351   7.3220   7.3221   8.4755   8.4756  10.0784  10.0784
    10.2763  10.2763  11.2810  11.2810

     occupation numbers 
     1.0000   1.0000   1.0000   1.0000   1.0000   1.0000   1.0000   1.0000
     1.0000   1.0000   1.0000   1.0000   1.0000   1.0000   1.0000   1.0000
     1.0000   1.0000   1.0000   1.0000   1.0000   1.0000   1.0000   1.0000
     1.0000   1.0000   1.0000   1.0000   0.0000   0.0000   0.0000   0.0000
     0.0000   0.0000   0.0000   0.0000

          k = 0.2652 0.0000 0.0000 (  4448 PWs)   bands (ev):

   -14.5145 -14.5145 -14.5095 -14.5095 -14.4394 -14.4394 -14.4319 -14.4319
   -13.5664 -13.5664 -13.4559 -13.4559 -13.4345 -13.4345 -13.3593 -13.3593
   -13.3547 -13.3547 -13.2866 -13.2866  -2.1170  -2.1170   4.2006   4.2006
     6.4275   6.4275   6.5998   6.5998   8.8905   8.8905   9.3733   9.3733
    11.3022  11.3022  11.3397  11.3397

     occupation numbers 
     1.0000   1.0000   1.0000   1.0000   1.0000   1.0000   1.0000   1.0000
     1.0000   1.0000   1.0000   1.0000   1.0000   1.0000   1.0000   1.0000
     1.0000   1.0000   1.0000   1.0000   1.0000   1.0000   1.0000   1.0000
     1.0000   1.0000   1.0000   1.0000   0.0000   0.0000   0.0000   0.0000
     0.0000   0.0000   0.0000   0.0000

          k = 0.3094 0.0442-0.0442 (  4449 PWs)   bands (ev):

   -14.5153 -14.5153 -14.5069 -14.5069 -14.4418 -14.4418 -14.4305 -14.4305
   -13.5590 -13.5590 -13.4645 -13.4645 -13.4382 -13.4382 -13.3598 -13.3598
   -13.3460 -13.3460 -13.2887 -13.2887  -1.9477  -1.9477   3.6969   3.6969
     6.1960   6.1960   6.3744   6.3744   8.8715   8.8715   9.4790   9.4790
    11.6359  11.6359  11.6880  11.6881

     occupation numbers 
     1.0000   1.0000   1.0000   1.0000   1.0000   1.0000   1.0000   1.0000
     1.0000   1.0000   1.0000   1.0000   1.0000   1.0000   1.0000   1.0000
     1.0000   1.0000   1.0000   1.0000   1.0000   1.0000   1.0000   1.0000
     1.0000   1.0000   1.0000   1.0000   0.0000   0.0000   0.0000   0.0000
     0.0000   0.0000   0.0000   0.0000

          k = 0.3536 0.0884-0.0884 (  4441 PWs)   bands (ev):

   -14.5170 -14.5169 -14.5026 -14.5026 -14.4461 -14.4461 -14.4282 -14.4281
   -13.5498 -13.5498 -13.4738 -13.4737 -13.4419 -13.4419 -13.3619 -13.3619
   -13.3366 -13.3366 -13.2908 -13.2908  -1.7190  -1.7190   3.1065   3.1065
     5.9055   5.9056   6.1953   6.1953   8.9588   8.9589   9.6265   9.6266
    11.7215  11.7215  11.9119  11.9119

     occupation numbers 
     1.0000   1.0000   1.0000   1.0000   1.0000   1.0000   1.0000   1.0000
     1.0000   1.0000   1.0000   1.0000   1.0000   1.0000   1.0000   1.0000
     1.0000   1.0000   1.0000   1.0000   1.0000   1.0000   1.0000   1.0000
     1.0000   1.0000   1.0000   1.0000   0.0000   0.0000   0.0000   0.0000
     0.0000   0.0000   0.0000   0.0000

          k = 0.3977 0.1326-0.1326 (  4438 PWs)   bands (ev):

   -14.5187 -14.5186 -14.4975 -14.4974 -14.4514 -14.4513 -14.4256 -14.4255
   -13.5399 -13.5399 -13.4823 -13.4822 -13.4454 -13.4454 -13.3646 -13.3646
   -13.3291 -13.3291 -13.2921 -13.2921  -1.4433  -1.4433   2.5058   2.5058
     5.6023   5.6023   6.0855   6.0855   8.9314   8.9315  10.0020  10.0020
    11.7298  11.7298  11.9943  11.9943

     occupation numbers 
     1.0000   1.0000   1.0000   1.0000   1.0000   1.0000   1.0000   1.0000
     1.0000   1.0000   1.0000   1.0000   1.0000   1.0000   1.0000   1.0000
     1.0000   1.0000   1.0000   1.0000   1.0000   1.0000   1.0000   1.0000
     1.0000   1.0000   1.0000   1.0000   0.0000   0.0000   0.0000   0.0000
     0.0000   0.0000   0.0000   0.0000

          k = 0.4419 0.1768-0.1768 (  4436 PWs)   bands (ev):

   -14.5201 -14.5201 -14.4921 -14.4918 -14.4571 -14.4569 -14.4232 -14.4232
   -13.5306 -13.5306 -13.4893 -13.4892 -13.4485 -13.4484 -13.3676 -13.3675
   -13.3245 -13.3244 -13.2920 -13.2920  -1.1470  -1.1470   1.9587   1.9587
     5.3365   5.3365   6.0433   6.0433   8.8566   8.8567  10.4134  10.4134
    11.8526  11.8526  12.0036  12.0036

     occupation numbers 
     1.0000   1.0000   1.0000   1.0000   1.0000   1.0000   1.0000   1.0000
     1.0000   1.0000   1.0000   1.0000   1.0000   1.0000   1.0000   1.0000
     1.0000   1.0000   1.0000   1.0000   1.0000   1.0000   1.0000   1.0000
     1.0000   1.0000   1.0000   1.0000   0.0000   0.0000   0.0000   0.0000
     0.0000   0.0000   0.0000   0.0000

          k =-0.2210-0.4861 0.4861 (  4428 PWs)   bands (ev):

   -14.5212 -14.5212 -14.4870 -14.4865 -14.4626 -14.4622 -14.4215 -14.4214
   -13.5237 -13.5237 -13.4939 -13.4939 -13.4506 -13.4505 -13.3701 -13.3700
   -13.3223 -13.3223 -13.2912 -13.2911  -0.8906  -0.8906   1.5469   1.5469
     5.1327   5.1328   6.0667   6.0667   8.7993   8.7993  10.6725  10.6725
    11.7974  11.7974  12.4133  12.4133

     occupation numbers 
     1.0000   1.0000   1.0000   1.0000   1.0000   1.0000   1.0000   1.0000
     1.0000   1.0000   1.0000   1.0000   1.0000   1.0000   1.0000   1.0000
     1.0000   1.0000   1.0000   1.0000   1.0000   1.0000   1.0000   1.0000
     1.0000   1.0000   1.0000   1.0000   0.0000   0.0000   0.0000   0.0000
     0.0000   0.0000   0.0000   0.0000

          k =-0.1768-0.4419 0.4419 (  4426 PWs)   bands (ev):

   -14.5218 -14.5218 -14.4837 -14.4830 -14.4663 -14.4656 -14.4205 -14.4205
   -13.5214 -13.5213 -13.4955 -13.4955 -13.4509 -13.4509 -13.3717 -13.3716
   -13.3215 -13.3214 -13.2906 -13.2906  -0.7857  -0.7857   1.3925   1.3925
     5.0039   5.0040   6.1530   6.1530   8.7773   8.7773  10.8103  10.8103
    11.6476  11.6476  13.0365  13.0365

     occupation numbers 
     1.0000   1.0000   1.0000   1.0000   1.0000   1.0000   1.0000   1.0000
     1.0000   1.0000   1.0000   1.0000   1.0000   1.0000   1.0000   1.0000
     1.0000   1.0000   1.0000   1.0000   1.0000   1.0000   1.0000   1.0000
     1.0000   1.0000   1.0000   1.0000   0.0000   0.0000   0.0000   0.0000
     0.0000   0.0000   0.0000   0.0000

          k =-0.1326-0.3977 0.3977 (  4416 PWs)   bands (ev):

   -14.5219 -14.5218 -14.4845 -14.4839 -14.4655 -14.4649 -14.4205 -14.4205
   -13.5244 -13.5244 -13.4937 -13.4937 -13.4492 -13.4492 -13.3720 -13.3719
   -13.3212 -13.3212 -13.2912 -13.2912  -0.9049  -0.9049   1.5695   1.5695
     4.9606   4.9606   6.2965   6.2965   8.7900   8.7900  10.9193  10.9193
    11.4676  11.4676  13.1392  13.1392

     occupation numbers 
     1.0000   1.0000   1.0000   1.0000   1.0000   1.0000   1.0000   1.0000
     1.0000   1.0000   1.0000   1.0000   1.0000   1.0000   1.0000   1.0000
     1.0000   1.0000   1.0000   1.0000   1.0000   1.0000   1.0000   1.0000
     1.0000   1.0000   1.0000   1.0000   0.0000   0.0000   0.0000   0.0000
     0.0000   0.0000   0.0000   0.0000

          k =-0.0884-0.3536 0.3536 (  4433 PWs)   bands (ev):

   -14.5215 -14.5214 -14.4887 -14.4884 -14.4611 -14.4607 -14.4214 -14.4214
   -13.5316 -13.5315 -13.4892 -13.4892 -13.4463 -13.4462 -13.3710 -13.3710
   -13.3220 -13.3220 -13.2926 -13.2925  -1.1663  -1.1663   1.9878   1.9879
     5.0152   5.0153   6.4877   6.4877   8.8235   8.8235  11.0199  11.0199
    11.2520  11.2520  12.4783  12.4783

     occupation numbers 
     1.0000   1.0000   1.0000   1.0000   1.0000   1.0000   1.0000   1.0000
     1.0000   1.0000   1.0000   1.0000   1.0000   1.0000   1.0000   1.0000
     1.0000   1.0000   1.0000   1.0000   1.0000   1.0000   1.0000   1.0000
     1.0000   1.0000   1.0000   1.0000   0.0000   0.0000   0.0000   0.0000
     0.0000   0.0000   0.0000   0.0000

          k =-0.0442-0.3094 0.3094 (  4434 PWs)   bands (ev):

   -14.5207 -14.5206 -14.4938 -14.4936 -14.4557 -14.4555 -14.4231 -14.4230
   -13.5408 -13.5408 -13.4825 -13.4825 -13.4430 -13.4430 -13.3689 -13.3689
   -13.3249 -13.3249 -13.2935 -13.2935  -1.4616  -1.4616   2.5192   2.5192
     5.1862   5.1862   6.7106   6.7106   8.8445   8.8445  10.9354  10.9355
    11.0845  11.0845  11.8728  11.8729

     occupation numbers 
     1.0000   1.0000   1.0000   1.0000   1.0000   1.0000   1.0000   1.0000
     1.0000   1.0000   1.0000   1.0000   1.0000   1.0000   1.0000   1.0000
     1.0000   1.0000   1.0000   1.0000   1.0000   1.0000   1.0000   1.0000
     1.0000   1.0000   1.0000   1.0000   0.0000   0.0000   0.0000   0.0000
     0.0000   0.0000   0.0000   0.0000

          k = 0.0000-0.2652 0.2652 (  4423 PWs)   bands (ev):

   -14.5196 -14.5195 -14.4986 -14.4985 -14.4505 -14.4504 -14.4253 -14.4252
   -13.5506 -13.5506 -13.4739 -13.4739 -13.4404 -13.4403 -13.3663 -13.3663
   -13.3310 -13.3310 -13.2929 -13.2929  -1.7342  -1.7342   3.0736   3.0736
     5.4973   5.4973   6.9383   6.9383   8.7847   8.7847  10.6301  10.6301
    10.8252  10.8252  11.6783  11.6784

     occupation numbers 
     1.0000   1.0000   1.0000   1.0000   1.0000   1.0000   1.0000   1.0000
     1.0000   1.0000   1.0000   1.0000   1.0000   1.0000   1.0000   1.0000
     1.0000   1.0000   1.0000   1.0000   1.0000   1.0000   1.0000   1.0000
     1.0000   1.0000   1.0000   1.0000   0.0000   0.0000   0.0000   0.0000
     0.0000   0.0000   0.0000   0.0000

          k = 0.3536 0.0000 0.0000 (  4432 PWs)   bands (ev):

   -14.5142 -14.5142 -14.5070 -14.5070 -14.4418 -14.4418 -14.4311 -14.4311
   -13.5528 -13.5528 -13.4708 -13.4708 -13.4405 -13.4405 -13.3601 -13.3601
   -13.3416 -13.3416 -13.2893 -13.2893  -1.7981  -1.7981   3.3533   3.3533
     6.0444   6.0444   6.1635   6.1635   8.6112   8.6112   9.5417   9.5417
    12.1026  12.1026  12.1341  12.1341

     occupation numbers 
     1.0000   1.0000   1.0000   1.0000   1.0000   1.0000   1.0000   1.0000
     1.0000   1.0000   1.0000   1.0000   1.0000   1.0000   1.0000   1.0000
     1.0000   1.0000   1.0000   1.0000   1.0000   1.0000   1.0000   1.0000
     1.0000   1.0000   1.0000   1.0000   0.0000   0.0000   0.0000   0.0000
     0.0000   0.0000   0.0000   0.0000

          k = 0.3977 0.0442-0.0442 (  4445 PWs)   bands (ev):

   -14.5148 -14.5148 -14.5045 -14.5045 -14.4441 -14.4441 -14.4300 -14.4300
   -13.5449 -13.5449 -13.4781 -13.4781 -13.4427 -13.4427 -13.3641 -13.3641
   -13.3340 -13.3340 -13.2901 -13.2901  -1.5871  -1.5871   2.8879   2.8879
     5.8221   5.8221   5.9754   5.9754   8.6326   8.6326   9.5101   9.5101
    12.2573  12.2573  12.4621  12.4621

     occupation numbers 
     1.0000   1.0000   1.0000   1.0000   1.0000   1.0000   1.0000   1.0000
     1.0000   1.0000   1.0000   1.0000   1.0000   1.0000   1.0000   1.0000
     1.0000   1.0000   1.0000   1.0000   1.0000   1.0000   1.0000   1.0000
     1.0000   1.0000   1.0000   1.0000   0.0000   0.0000   0.0000   0.0000
     0.0000   0.0000   0.0000   0.0000

          k = 0.4419 0.0884-0.0884 (  4440 PWs)   bands (ev):

   -14.5165 -14.5165 -14.5003 -14.5002 -14.4485 -14.4484 -14.4275 -14.4275
   -13.5364 -13.5363 -13.4849 -13.4849 -13.4443 -13.4442 -13.3701 -13.3700
   -13.3270 -13.3270 -13.2902 -13.2902  -1.3237  -1.3237   2.3760   2.3760
     5.5040   5.5040   5.8554   5.8554   8.7739   8.7739   9.6447   9.6447
    12.1358  12.1358  12.6257  12.6257

     occupation numbers 
     1.0000   1.0000   1.0000   1.0000   1.0000   1.0000   1.0000   1.0000
     1.0000   1.0000   1.0000   1.0000   1.0000   1.0000   1.0000   1.0000
     1.0000   1.0000   1.0000   1.0000   1.0000   1.0000   1.0000   1.0000
     1.0000   1.0000   1.0000   1.0000   0.0000   0.0000   0.0000   0.0000
     0.0000   0.0000   0.0000   0.0000

          k = 0.4861 0.1326-0.1326 (  4432 PWs)   bands (ev):

   -14.5183 -14.5182 -14.4955 -14.4953 -14.4537 -14.4535 -14.4248 -14.4247
   -13.5288 -13.5288 -13.4897 -13.4897 -13.4454 -13.4453 -13.3764 -13.3764
   -13.3227 -13.3226 -13.2888 -13.2888  -1.0273  -1.0273   1.8766   1.8766
     5.1737   5.1737   5.8080   5.8080   8.8161   8.8162  10.0988  10.0989
    12.0152  12.0152  12.6190  12.6190

     occupation numbers 
     1.0000   1.0000   1.0000   1.0000   1.0000   1.0000   1.0000   1.0000
     1.0000   1.0000   1.0000   1.0000   1.0000   1.0000   1.0000   1.0000
     1.0000   1.0000   1.0000   1.0000   1.0000   1.0000   1.0000   1.0000
     1.0000   1.0000   1.0000   1.0000   0.0000   0.0000   0.0000   0.0000
     0.0000   0.0000   0.0000   0.0000

          k =-0.1768-0.5303 0.5303 (  4427 PWs)   bands (ev):

   -14.5197 -14.5197 -14.4907 -14.4903 -14.4592 -14.4588 -14.4223 -14.4223
   -13.5240 -13.5240 -13.4916 -13.4915 -13.4461 -13.4460 -13.3820 -13.3819
   -13.3211 -13.3210 -13.2865 -13.2865  -0.7438  -0.7438   1.4576   1.4576
     4.8952   4.8952   5.8281   5.8281   8.8128   8.8128  10.7098  10.7098
    12.0002  12.0002  12.5013  12.5013

     occupation numbers 
     1.0000   1.0000   1.0000   1.0000   1.0000   1.0000   1.0000   1.0000
[...]

     occupation numbers 
     1.0000   1.0000   1.0000   1.0000   1.0000   1.0000   1.0000   1.0000
     1.0000   1.0000   1.0000   1.0000   1.0000   1.0000   1.0000   1.0000
     1.0000   1.0000   1.0000   1.0000   1.0000   1.0000   1.0000   1.0000
     1.0000   1.0000   1.0000   1.0000   0.0000   0.0000   0.0000   0.0000
     0.0000   0.0000   0.0000   0.0000

          k =-0.1326-0.3977 0.5745 (  4422 PWs)   bands (ev):

   -14.5208 -14.5207 -14.4866 -14.4858 -14.4644 -14.4636 -14.4202 -14.4201
   -13.5234 -13.5234 -13.4889 -13.4888 -13.4442 -13.4440 -13.3906 -13.3904
   -13.3216 -13.3215 -13.2823 -13.2822  -0.4875  -0.4875   1.1609   1.1609
     4.6620   4.6620   5.6379   5.6379   9.4764   9.4764  10.7379  10.7380
    12.0041  12.0041  12.7124  12.7124

     occupation numbers 
     1.0000   1.0000   1.0000   1.0000   1.0000   1.0000   1.0000   1.0000
     1.0000   1.0000   1.0000   1.0000   1.0000   1.0000   1.0000   1.0000
     1.0000   1.0000   1.0000   1.0000   1.0000   1.0000   1.0000   1.0000
     1.0000   1.0000   1.0000   1.0000   0.0000   0.0000   0.0000   0.0000
     0.0000   0.0000   0.0000   0.0000

          k =-0.0884-0.3536 0.5303 (  4424 PWs)   bands (ev):

   -14.5210 -14.5210 -14.4860 -14.4852 -14.4650 -14.4642 -14.4199 -14.4198
   -13.5239 -13.5239 -13.4890 -13.4889 -13.4439 -13.4437 -13.3901 -13.3900
   -13.3217 -13.3216 -13.2825 -13.2824  -0.5420  -0.5420   1.2300   1.2301
     4.6296   4.6296   5.7062   5.7062   9.5192   9.5192  10.7332  10.7333
    12.0603  12.0603  12.6789  12.6789

     occupation numbers 
     1.0000   1.0000   1.0000   1.0000   1.0000   1.0000   1.0000   1.0000
     1.0000   1.0000   1.0000   1.0000   1.0000   1.0000   1.0000   1.0000
     1.0000   1.0000   1.0000   1.0000   1.0000   1.0000   1.0000   1.0000
     1.0000   1.0000   1.0000   1.0000   0.0000   0.0000   0.0000   0.0000
     0.0000   0.0000   0.0000   0.0000

          k =-0.0442-0.3094 0.4861 (  4427 PWs)   bands (ev):

   -14.5208 -14.5208 -14.4880 -14.4874 -14.4626 -14.4620 -14.4206 -14.4205
   -13.5261 -13.5261 -13.4896 -13.4895 -13.4435 -13.4434 -13.3857 -13.3855
   -13.3219 -13.3218 -13.2847 -13.2847  -0.7853  -0.7853   1.5489   1.5489
     4.7008   4.7009   5.8479   5.8479   9.5653   9.5654  10.6196  10.6196
    11.5068  11.5068  12.8821  12.8821

     occupation numbers 
     1.0000   1.0000   1.0000   1.0000   1.0000   1.0000   1.0000   1.0000
     1.0000   1.0000   1.0000   1.0000   1.0000   1.0000   1.0000   1.0000
     1.0000   1.0000   1.0000   1.0000   1.0000   1.0000   1.0000   1.0000
     1.0000   1.0000   1.0000   1.0000   0.0000   0.0000   0.0000   0.0000
     0.0000   0.0000   0.0000   0.0000

          k = 0.0000-0.2652 0.4419 (  4429 PWs)   bands (ev):

   -14.5203 -14.5203 -14.4915 -14.4911 -14.4586 -14.4582 -14.4220 -14.4220
   -13.5309 -13.5308 -13.4884 -13.4883 -13.4436 -13.4435 -13.3784 -13.3783
   -13.3230 -13.3229 -13.2881 -13.2881  -1.0828  -1.0828   1.9674   1.9674
     4.8945   4.8945   6.0378   6.0378   9.5545   9.5546  10.2753  10.2754
    11.3354  11.3354  12.6552  12.6553

     occupation numbers 
     1.0000   1.0000   1.0000   1.0000   1.0000   1.0000   1.0000   1.0000
     1.0000   1.0000   1.0000   1.0000   1.0000   1.0000   1.0000   1.0000
     1.0000   1.0000   1.0000   1.0000   1.0000   1.0000   1.0000   1.0000
     1.0000   1.0000   1.0000   1.0000   0.0000   0.0000   0.0000   0.0000
     0.0000   0.0000   0.0000   0.0000

          k =-0.1768-0.5303 0.7071 (  4426 PWs)   bands (ev):

   -14.5175 -14.5174 -14.4960 -14.4957 -14.4535 -14.4532 -14.4249 -14.4249
   -13.5253 -13.5253 -13.4910 -13.4910 -13.4422 -13.4421 -13.3864 -13.3863
   -13.3201 -13.3200 -13.2862 -13.2861  -0.7919  -0.7919   1.5863   1.5863
     5.0584   5.0585   5.5148   5.5148   9.2154   9.2155   9.6072   9.6072
    12.0141  12.0141  13.6030  13.6030

     occupation numbers 
     1.0000   1.0000   1.0000   1.0000   1.0000   1.0000   1.0000   1.0000
     1.0000   1.0000   1.0000   1.0000   1.0000   1.0000   1.0000   1.0000
     1.0000   1.0000   1.0000   1.0000   1.0000   1.0000   1.0000   1.0000
     1.0000   1.0000   1.0000   1.0000   0.0000   0.0000   0.0000   0.0000
     0.0000   0.0000   0.0000   0.0000

          k =-0.1326-0.4861 0.6629 (  4425 PWs)   bands (ev):

   -14.5186 -14.5185 -14.4929 -14.4924 -14.4574 -14.4569 -14.4228 -14.4227
   -13.5235 -13.5235 -13.4896 -13.4895 -13.4400 -13.4398 -13.3952 -13.3951
   -13.3198 -13.3197 -13.2826 -13.2826  -0.4886  -0.4886   1.2030   1.2030
     4.8315   4.8315   5.3930   5.3930   9.3860   9.3860  10.0715  10.0715
    11.8430  11.8430  13.5602  13.5602

     occupation numbers 
     1.0000   1.0000   1.0000   1.0000   1.0000   1.0000   1.0000   1.0000
     1.0000   1.0000   1.0000   1.0000   1.0000   1.0000   1.0000   1.0000
     1.0000   1.0000   1.0000   1.0000   1.0000   1.0000   1.0000   1.0000
     1.0000   1.0000   1.0000   1.0000   0.0000   0.0000   0.0000   0.0000
     0.0000   0.0000   0.0000   0.0000

          k =-0.0884-0.4419 0.6187 (  4420 PWs)   bands (ev):

   -14.5196 -14.5195 -14.4898 -14.4892 -14.4611 -14.4604 -14.4211 -14.4209
   -13.5236 -13.5236 -13.4870 -13.4869 -13.4383 -13.4380 -13.4014 -13.4011
   -13.3205 -13.3204 -13.2799 -13.2799  -0.2511  -0.2511   0.9280   0.9281
     4.6369   4.6369   5.3816   5.3816   9.4444   9.4445  10.7836  10.7836
    11.7461  11.7461  12.9948  12.9948

     occupation numbers 
     1.0000   1.0000   1.0000   1.0000   1.0000   1.0000   1.0000   1.0000
     1.0000   1.0000   1.0000   1.0000   1.0000   1.0000   1.0000   1.0000
     1.0000   1.0000   1.0000   1.0000   1.0000   1.0000   1.0000   1.0000
     1.0000   1.0000   1.0000   1.0000   0.0000   0.0000   0.0000   0.0000
     0.0000   0.0000   0.0000   0.0000

          k =-0.0442-0.3977 0.5745 (  4421 PWs)   bands (ev):

   -14.5204 -14.5203 -14.4875 -14.4867 -14.4638 -14.4629 -14.4200 -14.4199
   -13.5241 -13.5241 -13.4860 -13.4859 -13.4385 -13.4381 -13.4017 -13.4014
   -13.3212 -13.3211 -13.2792 -13.2791  -0.2532  -0.2532   0.9330   0.9330
     4.5262   4.5262   5.4689   5.4689   9.5199   9.5199  11.2429  11.2429
    11.9520  11.9521  12.2902  12.2902

     occupation numbers 
     1.0000   1.0000   1.0000   1.0000   1.0000   1.0000   1.0000   1.0000
     1.0000   1.0000   1.0000   1.0000   1.0000   1.0000   1.0000   1.0000
     1.0000   1.0000   1.0000   1.0000   1.0000   1.0000   1.0000   1.0000
     1.0000   1.0000   1.0000   1.0000   0.0000   0.0000   0.0000   0.0000
     0.0000   0.0000   0.0000   0.0000

          k = 0.0000-0.3536 0.5303 (  4423 PWs)   bands (ev):

   -14.5208 -14.5207 -14.4868 -14.4860 -14.4644 -14.4636 -14.4199 -14.4198
   -13.5247 -13.5246 -13.4875 -13.4874 -13.4407 -13.4405 -13.3957 -13.3955
   -13.3216 -13.3215 -13.2809 -13.2808  -0.4882  -0.4882   1.2015   1.2016
     4.5392   4.5392   5.6333   5.6333   9.5931   9.5932  11.1102  11.1102
    11.5852  11.5852  12.7554  12.7554

     occupation numbers 
     1.0000   1.0000   1.0000   1.0000   1.0000   1.0000   1.0000   1.0000
     1.0000   1.0000   1.0000   1.0000   1.0000   1.0000   1.0000   1.0000
     1.0000   1.0000   1.0000   1.0000   1.0000   1.0000   1.0000   1.0000
     1.0000   1.0000   1.0000   1.0000   0.0000   0.0000   0.0000   0.0000
     0.0000   0.0000   0.0000   0.0000

          k =-0.0884-0.5303 0.7071 (  4416 PWs)   bands (ev):

   -14.5167 -14.5166 -14.4961 -14.4957 -14.4536 -14.4531 -14.4251 -14.4250
   -13.5213 -13.5213 -13.4918 -13.4917 -13.4349 -13.4346 -13.4025 -13.4023
   -13.3163 -13.3162 -13.2835 -13.2835  -0.2665  -0.2665   0.9359   0.9359
     4.9770   4.9771   5.2338   5.2338   9.1804   9.1806   9.4350   9.4351
    12.6795  12.6796  13.8954  13.8954

     occupation numbers 
     1.0000   1.0000   1.0000   1.0000   1.0000   1.0000   1.0000   1.0000
     1.0000   1.0000   1.0000   1.0000   1.0000   1.0000   1.0000   1.0000
     1.0000   1.0000   1.0000   1.0000   1.0000   1.0000   1.0000   1.0000
     1.0000   1.0000   1.0000   1.0000   0.0000   0.0000   0.0000   0.0000
     0.0000   0.0000   0.0000   0.0000

          k =-0.0442-0.4861 0.6629 (  4416 PWs)   bands (ev):

   -14.5180 -14.5179 -14.4932 -14.4927 -14.4572 -14.4566 -14.4229 -14.4228
   -13.5226 -13.5225 -13.4881 -13.4880 -13.4314 -13.4309 -13.4101 -13.4096
   -13.3182 -13.3180 -13.2802 -13.2801   0.0165   0.0165   0.6367   0.6367
     4.7748   4.7748   5.1868   5.1868   9.3370   9.3371  10.0188  10.0188
    12.4985  12.4985  13.2139  13.2139

     occupation numbers 
     1.0000   1.0000   1.0000   1.0000   1.0000   1.0000   1.0000   1.0000
     1.0000   1.0000   1.0000   1.0000   1.0000   1.0000   1.0000   1.0000
     1.0000   1.0000   1.0000   1.0000   1.0000   1.0000   1.0000   1.0000
     1.0000   1.0000   1.0000   1.0000   0.0000   0.0000   0.0000   0.0000
     0.0000   0.0000   0.0000   0.0000

          k = 0.0000-0.4419 0.6187 (  4415 PWs)   bands (ev):

   -14.5193 -14.5192 -14.4902 -14.4895 -14.4609 -14.4601 -14.4210 -14.4209
   -13.5238 -13.5237 -13.4856 -13.4855 -13.4330 -13.4324 -13.4098 -13.4093
   -13.3200 -13.3199 -13.2784 -13.2784   0.0141   0.0142   0.6483   0.6483
     4.5880   4.5881   5.2863   5.2863   9.4260   9.4260  10.8226  10.8226
    12.3090  12.3091  12.4043  12.4044

     occupation numbers 
     1.0000   1.0000   1.0000   1.0000   1.0000   1.0000   1.0000   1.0000
     1.0000   1.0000   1.0000   1.0000   1.0000   1.0000   1.0000   1.0000
     1.0000   1.0000   1.0000   1.0000   1.0000   1.0000   1.0000   1.0000
     1.0000   1.0000   1.0000   1.0000   0.0000   0.0000   0.0000   0.0000
     0.0000   0.0000   0.0000   0.0000

          k =-0.7071 0.1768 0.0000 (  4420 PWs)   bands (ev):

   -14.5163 -14.5162 -14.4963 -14.4959 -14.4534 -14.4530 -14.4253 -14.4251
   -13.5206 -13.5205 -13.4915 -13.4914 -13.4261 -13.4252 -13.4149 -13.4140
   -13.3150 -13.3149 -13.2825 -13.2825   0.2980   0.2984   0.3292   0.3296
     4.9749   4.9750   5.1136   5.1136   9.1971   9.1973   9.3375   9.3377
    13.3201  13.3202  13.4790  13.4791

     occupation numbers 
     1.0000   1.0000   1.0000   1.0000   1.0000   1.0000   1.0000   1.0000
     1.0000   1.0000   1.0000   1.0000   1.0000   1.0000   1.0000   1.0000
     1.0000   1.0000   1.0000   1.0000   1.0000   1.0000   1.0000   1.0000
     1.0000   1.0000   1.0000   1.0000   0.0000   0.0000   0.0000   0.0000
     0.0000   0.0000   0.0000   0.0000

          k =-0.1768-0.4419 0.7071 (  4426 PWs)   bands (ev):

   -14.5198 -14.5197 -14.4906 -14.4901 -14.4600 -14.4594 -14.4215 -14.4214
   -13.5252 -13.5252 -13.4889 -13.4888 -13.4420 -13.4418 -13.3906 -13.3904
   -13.3216 -13.3215 -13.2829 -13.2829  -0.6585  -0.6585   1.4140   1.4140
     4.7552   4.7552   5.5487   5.5488   9.9043   9.9045  10.1870  10.1872
    11.2917  11.2917  13.3365  13.3365

     occupation numbers 
     1.0000   1.0000   1.0000   1.0000   1.0000   1.0000   1.0000   1.0000
     1.0000   1.0000   1.0000   1.0000   1.0000   1.0000   1.0000   1.0000
     1.0000   1.0000   1.0000   1.0000   1.0000   1.0000   1.0000   1.0000
     1.0000   1.0000   1.0000   1.0000   0.0000   0.0000   0.0000   0.0000
     0.0000   0.0000   0.0000   0.0000

          k =-0.1326-0.3977 0.6629 (  4423 PWs)   bands (ev):

   -14.5202 -14.5201 -14.4885 -14.4878 -14.4626 -14.4619 -14.4204 -14.4203
   -13.5244 -13.5243 -13.4866 -13.4865 -13.4399 -13.4397 -13.3985 -13.3982
   -13.3216 -13.3215 -13.2799 -13.2798  -0.3755  -0.3755   1.0756   1.0757
     4.6281   4.6281   5.3945   5.3945   9.9759   9.9760  10.6307  10.6308
    11.4007  11.4007  12.8823  12.8823

     occupation numbers 
     1.0000   1.0000   1.0000   1.0000   1.0000   1.0000   1.0000   1.0000
     1.0000   1.0000   1.0000   1.0000   1.0000   1.0000   1.0000   1.0000
     1.0000   1.0000   1.0000   1.0000   1.0000   1.0000   1.0000   1.0000
     1.0000   1.0000   1.0000   1.0000   0.0000   0.0000   0.0000   0.0000
     0.0000   0.0000   0.0000   0.0000

          k =-0.0884-0.3536 0.6187 (  4424 PWs)   bands (ev):

   -14.5203 -14.5202 -14.4877 -14.4869 -14.4637 -14.4628 -14.4200 -14.4199
   -13.5243 -13.5243 -13.4854 -13.4852 -13.4390 -13.4387 -13.4016 -13.4014
   -13.3217 -13.3216 -13.2787 -13.2787  -0.2379  -0.2379   0.9185   0.9185
     4.5876   4.5877   5.3381   5.3381   9.9810   9.9810  10.7525  10.7525
    11.8952  11.8952  12.2319  12.2319

     occupation numbers 
     1.0000   1.0000   1.0000   1.0000   1.0000   1.0000   1.0000   1.0000
     1.0000   1.0000   1.0000   1.0000   1.0000   1.0000   1.0000   1.0000
     1.0000   1.0000   1.0000   1.0000   1.0000   1.0000   1.0000   1.0000
     1.0000   1.0000   1.0000   1.0000   0.0000   0.0000   0.0000   0.0000
     0.0000   0.0000   0.0000   0.0000

          k =-0.0884-0.4419 0.7071 (  4429 PWs)   bands (ev):

   -14.5191 -14.5190 -14.4911 -14.4905 -14.4598 -14.4592 -14.4215 -14.4213
   -13.5239 -13.5238 -13.4863 -13.4862 -13.4358 -13.4354 -13.4051 -13.4047
   -13.3204 -13.3203 -13.2791 -13.2791  -0.1833  -0.1833   0.8661   0.8661
     4.7383   4.7384   5.1636   5.1636   9.9667   9.9669  10.1830  10.1832
    11.6672  11.6673  13.0494  13.0494

     occupation numbers 
     1.0000   1.0000   1.0000   1.0000   1.0000   1.0000   1.0000   1.0000
     1.0000   1.0000   1.0000   1.0000   1.0000   1.0000   1.0000   1.0000
     1.0000   1.0000   1.0000   1.0000   1.0000   1.0000   1.0000   1.0000
     1.0000   1.0000   1.0000   1.0000   0.0000   0.0000   0.0000   0.0000
     0.0000   0.0000   0.0000   0.0000

          k =-0.0442-0.3977 0.6629 (  4418 PWs)   bands (ev):

   -14.5196 -14.5195 -14.4896 -14.4888 -14.4619 -14.4610 -14.4205 -14.4203
   -13.5245 -13.5245 -13.4837 -13.4836 -13.4331 -13.4325 -13.4109 -13.4104
   -13.3213 -13.3211 -13.2772 -13.2771   0.0358   0.0359   0.6376   0.6376
     4.6566   4.6566   5.0845   5.0845  10.1078  10.1079  10.8167  10.8168
    11.5934  11.5934  12.2039  12.2039

     occupation numbers 
     1.0000   1.0000   1.0000   1.0000   1.0000   1.0000   1.0000   1.0000
     1.0000   1.0000   1.0000   1.0000   1.0000   1.0000   1.0000   1.0000
     1.0000   1.0000   1.0000   1.0000   1.0000   1.0000   1.0000   1.0000
     1.0000   1.0000   1.0000   1.0000   0.0000   0.0000   0.0000   0.0000
     0.0000   0.0000   0.0000   0.0000

          k =-0.0000-0.3536 0.6187 (  4418 PWs)   bands (ev):

   -14.5200 -14.5199 -14.4886 -14.4878 -14.4629 -14.4621 -14.4201 -14.4199
   -13.5247 -13.5246 -13.4839 -13.4837 -13.4352 -13.4348 -13.4078 -13.4074
   -13.3217 -13.3215 -13.2774 -13.2773  -0.0857  -0.0857   0.7671   0.7672
     4.5961   4.5962   5.1835   5.1836  10.1549  10.1549  10.9991  10.9991
    11.4806  11.4806  12.1127  12.1127

     occupation numbers 
     1.0000   1.0000   1.0000   1.0000   1.0000   1.0000   1.0000   1.0000
     1.0000   1.0000   1.0000   1.0000   1.0000   1.0000   1.0000   1.0000
     1.0000   1.0000   1.0000   1.0000   1.0000   1.0000   1.0000   1.0000
     1.0000   1.0000   1.0000   1.0000   0.0000   0.0000   0.0000   0.0000
     0.0000   0.0000   0.0000   0.0000

          k =-0.7071 0.2652 0.0000 (  4416 PWs)   bands (ev):

   -14.5188 -14.5186 -14.4915 -14.4909 -14.4596 -14.4588 -14.4215 -14.4214
   -13.5238 -13.5238 -13.4849 -13.4848 -13.4289 -13.4280 -13.4154 -13.4146
   -13.3199 -13.3198 -13.2778 -13.2777   0.3087   0.3092   0.3502   0.3507
     4.7994   4.7995   4.9646   4.9646   9.9663   9.9665  10.1644  10.1646
    12.2803  12.2804  12.3833  12.3834

     occupation numbers 
     1.0000   1.0000   1.0000   1.0000   1.0000   1.0000   1.0000   1.0000
     1.0000   1.0000   1.0000   1.0000   1.0000   1.0000   1.0000   1.0000
     1.0000   1.0000   1.0000   1.0000   1.0000   1.0000   1.0000   1.0000
     1.0000   1.0000   1.0000   1.0000   0.0000   0.0000   0.0000   0.0000
     0.0000   0.0000   0.0000   0.0000

          k =-0.7071 0.3536 0.0000 (  4420 PWs)   bands (ev):

   -14.5196 -14.5195 -14.4895 -14.4886 -14.4621 -14.4612 -14.4202 -14.4201
   -13.5250 -13.5249 -13.4824 -13.4822 -13.4299 -13.4290 -13.4159 -13.4150
   -13.3216 -13.3215 -13.2762 -13.2761   0.3136   0.3140   0.3588   0.3593
     4.7337   4.7338   4.9069   4.9069  10.5570  10.5572  10.8820  10.8821
    11.5697  11.5698  11.5949  11.5950

     occupation numbers 
     1.0000   1.0000   1.0000   1.0000   1.0000   1.0000   1.0000   1.0000
     1.0000   1.0000   1.0000   1.0000   1.0000   1.0000   1.0000   1.0000
     1.0000   1.0000   1.0000   1.0000   1.0000   1.0000   1.0000   1.0000
     1.0000   1.0000   1.0000   1.0000   0.0000   0.0000   0.0000   0.0000
     0.0000   0.0000   0.0000   0.0000

     the Fermi energy is     7.5943 ev

!    total energy              =    -885.88656147 Ry
     Harris-Foulkes estimate   =    -885.88656123 Ry
     estimated scf accuracy    <       0.00000026 Ry

     total all-electron energy =    -24716.586376 Ry

     The total energy is the sum of the following terms:

     one-electron contribution =    -155.29203249 Ry
     hartree contribution      =      78.94094514 Ry
     xc contribution           =     -54.74590894 Ry
     ewald contribution        =    -167.52979534 Ry
     one-center paw contrib.   =    -587.25976978 Ry
     smearing contrib. (-TS)   =      -0.00000006 Ry

     convergence has been achieved in   5 iterations

     Writing output data file Sn.save
 
     init_run     :     12.89s CPU     13.39s WALL (       1 calls)
     electrons    :    266.95s CPU    273.09s WALL (       1 calls)

     Called by init_run:
     wfcinit      :     12.30s CPU     12.57s WALL (       1 calls)
     potinit      :      0.23s CPU      0.26s WALL (       1 calls)

     Called by electrons:
     c_bands      :    228.44s CPU    233.86s WALL (       6 calls)
     sum_band     :     37.08s CPU     37.67s WALL (       6 calls)
     v_of_rho     :      0.06s CPU      0.06s WALL (       6 calls)
     v_h          :      0.01s CPU      0.01s WALL (       6 calls)
     v_xc         :      0.05s CPU      0.06s WALL (       6 calls)
     newd         :      0.42s CPU      0.46s WALL (       6 calls)
     PAW_pot      :      1.17s CPU      1.25s WALL (       6 calls)
     mix_rho      :      0.02s CPU      0.04s WALL (       6 calls)

     Called by c_bands:
     init_us_2    :      0.39s CPU      0.51s WALL (    1885 calls)
     cegterg      :    220.18s CPU    225.26s WALL (     870 calls)

     Called by sum_band:
     sum_band:bec :      2.81s CPU      2.88s WALL (     870 calls)
     addusdens    :      0.28s CPU      0.34s WALL (       6 calls)

     Called by *egterg:
     h_psi        :    191.13s CPU    193.72s WALL (    3528 calls)
     s_psi        :      4.55s CPU      4.58s WALL (    3528 calls)
     g_psi        :      0.45s CPU      0.46s WALL (    2513 calls)
     cdiaghg      :     14.97s CPU     15.17s WALL (    3238 calls)
     cegterg:over :      8.46s CPU      8.49s WALL (    2513 calls)
     cegterg:upda :      4.04s CPU      4.06s WALL (    2513 calls)
     cegterg:last :      2.94s CPU      2.95s WALL (    1013 calls)

     Called by h_psi:
     h_psi:vloc   :    179.85s CPU    182.34s WALL (    3528 calls)
     h_psi:vnl    :     10.94s CPU     11.01s WALL (    3528 calls)
     add_vuspsi   :      4.95s CPU      4.97s WALL (    3528 calls)

     General routines
     calbec       :      7.94s CPU      8.03s WALL (    4398 calls)
     fft          :      0.09s CPU      0.15s WALL (     116 calls)
     fftw         :    204.83s CPU    207.62s WALL (  429808 calls)
     davcio       :      0.04s CPU      0.74s WALL (     145 calls)
 
     Parallel routines
     fft_scatter  :    164.99s CPU    167.43s WALL (  429924 calls)

     PAW routines
     PAW_pot      :      1.17s CPU      1.25s WALL (       6 calls)
     PAW_symme    :      0.02s CPU      0.02s WALL (      12 calls)
 
     PWSCF        :  4m41.16s CPU     4m48.75s WALL

 
   This run was terminated on:  19:57:45  15Mar2020            

=------------------------------------------------------------------------------=
   JOB DONE.
=------------------------------------------------------------------------------=
