
     Program PWSCF v.5.4.0 starts on 18Mar2020 at 21:42:53 

     This program is part of the open-source Quantum ESPRESSO suite
     for quantum simulation of materials; please cite
         "P. Giannozzi et al., J. Phys.:Condens. Matter 21 395502 (2009);
          URL http://www.quantum-espresso.org", 
     in publications or presentations arising from this work. More details at
     http://www.quantum-espresso.org/quote

     Parallel version (MPI & OpenMP), running on      64 processor cores
     Number of MPI processes:                64
     Threads/MPI process:                     1
     K-points division:     npool     =       8
     R & G space division:  proc/nbgrp/npool/nimage =       8
     Waiting for input...
     Reading input from standard input
Warning: card &IONS ignored
Warning: card / ignored
Warning: card &CELL ignored
Warning: card / ignored

     Current dimensions of program PWSCF are:
     Max number of different atomic species (ntypx) = 10
     Max number of k-points (npk) =  40000
     Max angular momentum in pseudopotentials (lmaxx) =  3
     Message from routine setup:
     At least one non s.o. pseudo

     Subspace diagonalization in iterative solution of the eigenvalue problem:
     a serial algorithm will be used

 
     Parallelization info
     --------------------
     sticks:   dense  smooth     PW     G-vecs:    dense   smooth      PW
     Min         407     407    114                15372    15372    2268
     Max         409     409    115                15376    15376    2272
     Sum        3259    3259    913               122997   122997   18149
 

     Title: 
     Sn                                                                         


     bravais-lattice index     =            0
     lattice parameter (alat)  =       8.8887  a.u.
     unit-cell volume          =     496.5847 (a.u.)^3
     number of atoms/cell      =            2
     number of atomic types    =            1
     number of electrons       =        28.00
     number of Kohn-Sham states=           36
     kinetic-energy cutoff     =     150.0000  Ry
     charge density cutoff     =     600.0000  Ry
     convergence threshold     =      1.0E-06
     mixing beta               =       0.7000
     number of iterations used =            8  plain     mixing
     Exchange-correlation      = PBE ( 1  4  3  4 0 0)
     Non magnetic calculation with spin-orbit


     celldm(1)=   8.888656  celldm(2)=   0.000000  celldm(3)=   0.000000
     celldm(4)=   0.000000  celldm(5)=   0.000000  celldm(6)=   0.000000

     crystal axes: (cart. coord. in units of alat)
               a(1) = (   0.000000   0.707107   0.707107 )  
               a(2) = (   0.707107   0.000000   0.707107 )  
               a(3) = (   0.707107   0.707107   0.000000 )  

     reciprocal axes: (cart. coord. in units 2 pi/alat)
               b(1) = ( -0.707107  0.707107  0.707107 )  
               b(2) = (  0.707107 -0.707107  0.707107 )  
               b(3) = (  0.707107  0.707107 -0.707107 )  


     PseudoPot. # 1 for Sn read from file:
     ../PseudopotentialDatabase/Sn_ONCV_PBE-1.2.upf
     MD5 check sum: 6680f7ee4d83b53e0fcd4167fcb72813
     Pseudo is Norm-conserving, Zval = 14.0
     Generated using ONCVPSP code by D. R. Hamann
     Using radial grid of  602 points,  6 beta functions with: 
                l(1) =   0
                l(2) =   0
                l(3) =   1
                l(4) =   1
                l(5) =   2
                l(6) =   2

     atomic species   valence    mass     pseudopotential
        Sn            14.00   118.71000     Sn( 1.00)

     48 Sym. Ops., with inversion, found (24 have fractional translation)


                                    s                        frac. trans.

      isym =  1     identity                                     

 cryst.   s( 1) = (     1          0          0      )
                  (     0          1          0      )
                  (     0          0          1      )

 cart.    s( 1) = (  1.0000000  0.0000000  0.0000000 )
                  (  0.0000000  1.0000000  0.0000000 )
                  (  0.0000000  0.0000000  1.0000000 )


      isym =  2     180 deg rotation - cart. axis [0,0,1]        

 cryst.   s( 2) = (     0          1         -1      )
                  (     1          0         -1      )
                  (     0          0         -1      )

 cart.    s( 2) = ( -1.0000000  0.0000000  0.0000000 )
                  (  0.0000000 -1.0000000  0.0000000 )
                  (  0.0000000  0.0000000  1.0000000 )


      isym =  3     180 deg rotation - cart. axis [0,1,0]        

 cryst.   s( 3) = (     0         -1          1      )
                  (     0         -1          0      )
                  (     1         -1          0      )

 cart.    s( 3) = ( -1.0000000  0.0000000  0.0000000 )
                  (  0.0000000  1.0000000  0.0000000 )
                  (  0.0000000  0.0000000 -1.0000000 )


      isym =  4     180 deg rotation - cart. axis [1,0,0]        

 cryst.   s( 4) = (    -1          0          0      )
                  (    -1          0          1      )
                  (    -1          1          0      )

 cart.    s( 4) = (  1.0000000  0.0000000  0.0000000 )
                  (  0.0000000 -1.0000000  0.0000000 )
                  (  0.0000000  0.0000000 -1.0000000 )


      isym =  5     180 deg rotation - cart. axis [1,1,0]        

 cryst.   s( 5) = (    -1          0          1      )    f =( -0.2500000 )
                  (     0         -1          1      )       ( -0.2500000 )
                  (     0          0          1      )       ( -0.2500000 )

 cart.    s( 5) = (  0.0000000  1.0000000  0.0000000 )    f =( -0.3535534 )
                  (  1.0000000  0.0000000  0.0000000 )       ( -0.3535534 )
                  (  0.0000000  0.0000000 -1.0000000 )       ( -0.3535534 )


      isym =  6     180 deg rotation - cart. axis [1,-1,0]       

 cryst.   s( 6) = (     0         -1          0      )    f =( -0.2500000 )
                  (    -1          0          0      )       ( -0.2500000 )
                  (     0          0         -1      )       ( -0.2500000 )

 cart.    s( 6) = (  0.0000000 -1.0000000  0.0000000 )    f =( -0.3535534 )
                  ( -1.0000000  0.0000000  0.0000000 )       ( -0.3535534 )
                  (  0.0000000  0.0000000 -1.0000000 )       ( -0.3535534 )


      isym =  7      90 deg rotation - cart. axis [0,0,-1]       

 cryst.   s( 7) = (     0          1          0      )    f =( -0.2500000 )
                  (     0          1         -1      )       ( -0.2500000 )
                  (    -1          1          0      )       ( -0.2500000 )

 cart.    s( 7) = (  0.0000000  1.0000000  0.0000000 )    f =( -0.3535534 )
                  ( -1.0000000  0.0000000  0.0000000 )       ( -0.3535534 )
                  (  0.0000000  0.0000000  1.0000000 )       ( -0.3535534 )


      isym =  8      90 deg rotation - cart. axis [0,0,1]        

 cryst.   s( 8) = (     1          0         -1      )    f =( -0.2500000 )
                  (     1          0          0      )       ( -0.2500000 )
                  (     1         -1          0      )       ( -0.2500000 )

 cart.    s( 8) = (  0.0000000 -1.0000000  0.0000000 )    f =( -0.3535534 )
                  (  1.0000000  0.0000000  0.0000000 )       ( -0.3535534 )
                  (  0.0000000  0.0000000  1.0000000 )       ( -0.3535534 )


      isym =  9     180 deg rotation - cart. axis [1,0,1]        

 cryst.   s( 9) = (    -1          1          0      )    f =( -0.2500000 )
                  (     0          1          0      )       ( -0.2500000 )
                  (     0          1         -1      )       ( -0.2500000 )

 cart.    s( 9) = (  0.0000000  0.0000000  1.0000000 )    f =( -0.3535534 )
                  (  0.0000000 -1.0000000  0.0000000 )       ( -0.3535534 )
                  (  1.0000000  0.0000000  0.0000000 )       ( -0.3535534 )


      isym = 10     180 deg rotation - cart. axis [-1,0,1]       

 cryst.   s(10) = (     0          0         -1      )    f =( -0.2500000 )
                  (     0         -1          0      )       ( -0.2500000 )
                  (    -1          0          0      )       ( -0.2500000 )

 cart.    s(10) = (  0.0000000  0.0000000 -1.0000000 )    f =( -0.3535534 )
                  (  0.0000000 -1.0000000  0.0000000 )       ( -0.3535534 )
                  ( -1.0000000  0.0000000  0.0000000 )       ( -0.3535534 )


      isym = 11      90 deg rotation - cart. axis [0,1,0]        

 cryst.   s(11) = (     0          0          1      )    f =( -0.2500000 )
                  (    -1          0          1      )       ( -0.2500000 )
                  (     0         -1          1      )       ( -0.2500000 )

 cart.    s(11) = (  0.0000000  0.0000000  1.0000000 )    f =( -0.3535534 )
                  (  0.0000000  1.0000000  0.0000000 )       ( -0.3535534 )
                  ( -1.0000000  0.0000000  0.0000000 )       ( -0.3535534 )


      isym = 12      90 deg rotation - cart. axis [0,-1,0]       

 cryst.   s(12) = (     1         -1          0      )    f =( -0.2500000 )
                  (     1          0         -1      )       ( -0.2500000 )
                  (     1          0          0      )       ( -0.2500000 )

 cart.    s(12) = (  0.0000000  0.0000000 -1.0000000 )    f =( -0.3535534 )
                  (  0.0000000  1.0000000  0.0000000 )       ( -0.3535534 )
                  (  1.0000000  0.0000000  0.0000000 )       ( -0.3535534 )


      isym = 13     180 deg rotation - cart. axis [0,1,1]        

 cryst.   s(13) = (     1          0          0      )    f =( -0.2500000 )
                  (     1         -1          0      )       ( -0.2500000 )
                  (     1          0         -1      )       ( -0.2500000 )

 cart.    s(13) = ( -1.0000000  0.0000000  0.0000000 )    f =( -0.3535534 )
                  (  0.0000000  0.0000000  1.0000000 )       ( -0.3535534 )
                  (  0.0000000  1.0000000  0.0000000 )       ( -0.3535534 )


      isym = 14     180 deg rotation - cart. axis [0,1,-1]       

 cryst.   s(14) = (    -1          0          0      )    f =( -0.2500000 )
                  (     0          0         -1      )       ( -0.2500000 )
                  (     0         -1          0      )       ( -0.2500000 )

 cart.    s(14) = ( -1.0000000  0.0000000  0.0000000 )    f =( -0.3535534 )
                  (  0.0000000  0.0000000 -1.0000000 )       ( -0.3535534 )
                  (  0.0000000 -1.0000000  0.0000000 )       ( -0.3535534 )


      isym = 15      90 deg rotation - cart. axis [-1,0,0]       

 cryst.   s(15) = (     0         -1          1      )    f =( -0.2500000 )
                  (     0          0          1      )       ( -0.2500000 )
                  (    -1          0          1      )       ( -0.2500000 )

 cart.    s(15) = (  1.0000000  0.0000000  0.0000000 )    f =( -0.3535534 )
                  (  0.0000000  0.0000000  1.0000000 )       ( -0.3535534 )
                  (  0.0000000 -1.0000000  0.0000000 )       ( -0.3535534 )


      isym = 16      90 deg rotation - cart. axis [1,0,0]        

 cryst.   s(16) = (     0          1         -1      )    f =( -0.2500000 )
                  (    -1          1          0      )       ( -0.2500000 )
                  (     0          1          0      )       ( -0.2500000 )

 cart.    s(16) = (  1.0000000  0.0000000  0.0000000 )    f =( -0.3535534 )
                  (  0.0000000  0.0000000 -1.0000000 )       ( -0.3535534 )
                  (  0.0000000  1.0000000  0.0000000 )       ( -0.3535534 )


      isym = 17     120 deg rotation - cart. axis [-1,-1,-1]     

 cryst.   s(17) = (     0          0          1      )
                  (     1          0          0      )
                  (     0          1          0      )

 cart.    s(17) = (  0.0000000  1.0000000  0.0000000 )
                  (  0.0000000  0.0000000  1.0000000 )
                  (  1.0000000  0.0000000  0.0000000 )


      isym = 18     120 deg rotation - cart. axis [-1,1,1]       

 cryst.   s(18) = (     1         -1          0      )
                  (     0         -1          1      )
                  (     0         -1          0      )

 cart.    s(18) = (  0.0000000 -1.0000000  0.0000000 )
                  (  0.0000000  0.0000000  1.0000000 )
                  ( -1.0000000  0.0000000  0.0000000 )


      isym = 19     120 deg rotation - cart. axis [1,1,-1]       

 cryst.   s(19) = (    -1          1          0      )
                  (    -1          0          0      )
                  (    -1          0          1      )

 cart.    s(19) = (  0.0000000  1.0000000  0.0000000 )
                  (  0.0000000  0.0000000 -1.0000000 )
                  ( -1.0000000  0.0000000  0.0000000 )


      isym = 20     120 deg rotation - cart. axis [1,-1,1]       

 cryst.   s(20) = (     0          0         -1      )
                  (     0          1         -1      )
                  (     1          0         -1      )

 cart.    s(20) = (  0.0000000 -1.0000000  0.0000000 )
                  (  0.0000000  0.0000000 -1.0000000 )
                  (  1.0000000  0.0000000  0.0000000 )


      isym = 21     120 deg rotation - cart. axis [1,1,1]        

 cryst.   s(21) = (     0          1          0      )
                  (     0          0          1      )
                  (     1          0          0      )

 cart.    s(21) = (  0.0000000  0.0000000  1.0000000 )
                  (  1.0000000  0.0000000  0.0000000 )
                  (  0.0000000  1.0000000  0.0000000 )


      isym = 22     120 deg rotation - cart. axis [-1,1,-1]      

 cryst.   s(22) = (    -1          0          1      )
                  (    -1          1          0      )
                  (    -1          0          0      )

 cart.    s(22) = (  0.0000000  0.0000000  1.0000000 )
                  ( -1.0000000  0.0000000  0.0000000 )
                  (  0.0000000 -1.0000000  0.0000000 )


      isym = 23     120 deg rotation - cart. axis [1,-1,-1]      

 cryst.   s(23) = (     1          0         -1      )
                  (     0          0         -1      )
                  (     0          1         -1      )

 cart.    s(23) = (  0.0000000  0.0000000 -1.0000000 )
                  ( -1.0000000  0.0000000  0.0000000 )
                  (  0.0000000  1.0000000  0.0000000 )


      isym = 24     120 deg rotation - cart. axis [-1,-1,1]      

 cryst.   s(24) = (     0         -1          0      )
                  (     1         -1          0      )
                  (     0         -1          1      )

 cart.    s(24) = (  0.0000000  0.0000000 -1.0000000 )
                  (  1.0000000  0.0000000  0.0000000 )
                  (  0.0000000 -1.0000000  0.0000000 )


      isym = 25     inversion                                    

 cryst.   s(25) = (    -1          0          0      )    f =( -0.2500000 )
                  (     0         -1          0      )       ( -0.2500000 )
                  (     0          0         -1      )       ( -0.2500000 )

 cart.    s(25) = ( -1.0000000  0.0000000  0.0000000 )    f =( -0.3535534 )
                  (  0.0000000 -1.0000000  0.0000000 )       ( -0.3535534 )
                  (  0.0000000  0.0000000 -1.0000000 )       ( -0.3535534 )


      isym = 26     inv. 180 deg rotation - cart. axis [0,0,1]   

 cryst.   s(26) = (     0         -1          1      )    f =( -0.2500000 )
                  (    -1          0          1      )       ( -0.2500000 )
                  (     0          0          1      )       ( -0.2500000 )

 cart.    s(26) = (  1.0000000  0.0000000  0.0000000 )    f =( -0.3535534 )
                  (  0.0000000  1.0000000  0.0000000 )       ( -0.3535534 )
                  (  0.0000000  0.0000000 -1.0000000 )       ( -0.3535534 )


      isym = 27     inv. 180 deg rotation - cart. axis [0,1,0]   

 cryst.   s(27) = (     0          1         -1      )    f =( -0.2500000 )
                  (     0          1          0      )       ( -0.2500000 )
                  (    -1          1          0      )       ( -0.2500000 )

 cart.    s(27) = (  1.0000000  0.0000000  0.0000000 )    f =( -0.3535534 )
                  (  0.0000000 -1.0000000  0.0000000 )       ( -0.3535534 )
                  (  0.0000000  0.0000000  1.0000000 )       ( -0.3535534 )


      isym = 28     inv. 180 deg rotation - cart. axis [1,0,0]   

 cryst.   s(28) = (     1          0          0      )    f =( -0.2500000 )
                  (     1          0         -1      )       ( -0.2500000 )
                  (     1         -1          0      )       ( -0.2500000 )

 cart.    s(28) = ( -1.0000000  0.0000000  0.0000000 )    f =( -0.3535534 )
                  (  0.0000000  1.0000000  0.0000000 )       ( -0.3535534 )
                  (  0.0000000  0.0000000  1.0000000 )       ( -0.3535534 )


      isym = 29     inv. 180 deg rotation - cart. axis [1,1,0]   

 cryst.   s(29) = (     1          0         -1      )
                  (     0          1         -1      )
                  (     0          0         -1      )

 cart.    s(29) = (  0.0000000 -1.0000000  0.0000000 )
                  ( -1.0000000  0.0000000  0.0000000 )
                  (  0.0000000  0.0000000  1.0000000 )


      isym = 30     inv. 180 deg rotation - cart. axis [1,-1,0]  

 cryst.   s(30) = (     0          1          0      )
                  (     1          0          0      )
                  (     0          0          1      )

 cart.    s(30) = (  0.0000000  1.0000000  0.0000000 )
                  (  1.0000000  0.0000000  0.0000000 )
                  (  0.0000000  0.0000000  1.0000000 )


      isym = 31     inv.  90 deg rotation - cart. axis [0,0,-1]  

 cryst.   s(31) = (     0         -1          0      )
                  (     0         -1          1      )
                  (     1         -1          0      )

 cart.    s(31) = (  0.0000000 -1.0000000  0.0000000 )
                  (  1.0000000  0.0000000  0.0000000 )
                  (  0.0000000  0.0000000 -1.0000000 )


      isym = 32     inv.  90 deg rotation - cart. axis [0,0,1]   

 cryst.   s(32) = (    -1          0          1      )
                  (    -1          0          0      )
                  (    -1          1          0      )

 cart.    s(32) = (  0.0000000  1.0000000  0.0000000 )
                  ( -1.0000000  0.0000000  0.0000000 )
                  (  0.0000000  0.0000000 -1.0000000 )


      isym = 33     inv. 180 deg rotation - cart. axis [1,0,1]   

 cryst.   s(33) = (     1         -1          0      )
                  (     0         -1          0      )
                  (     0         -1          1      )

 cart.    s(33) = (  0.0000000  0.0000000 -1.0000000 )
                  (  0.0000000  1.0000000  0.0000000 )
                  ( -1.0000000  0.0000000  0.0000000 )


      isym = 34     inv. 180 deg rotation - cart. axis [-1,0,1]  

 cryst.   s(34) = (     0          0          1      )
                  (     0          1          0      )
                  (     1          0          0      )

 cart.    s(34) = (  0.0000000  0.0000000  1.0000000 )
                  (  0.0000000  1.0000000  0.0000000 )
                  (  1.0000000  0.0000000  0.0000000 )


      isym = 35     inv.  90 deg rotation - cart. axis [0,1,0]   

 cryst.   s(35) = (     0          0         -1      )
                  (     1          0         -1      )
                  (     0          1         -1      )

 cart.    s(35) = (  0.0000000  0.0000000 -1.0000000 )
                  (  0.0000000 -1.0000000  0.0000000 )
                  (  1.0000000  0.0000000  0.0000000 )


      isym = 36     inv.  90 deg rotation - cart. axis [0,-1,0]  

 cryst.   s(36) = (    -1          1          0      )
                  (    -1          0          1      )
                  (    -1          0          0      )

 cart.    s(36) = (  0.0000000  0.0000000  1.0000000 )
                  (  0.0000000 -1.0000000  0.0000000 )
                  ( -1.0000000  0.0000000  0.0000000 )


      isym = 37     inv. 180 deg rotation - cart. axis [0,1,1]   

 cryst.   s(37) = (    -1          0          0      )
                  (    -1          1          0      )
                  (    -1          0          1      )

 cart.    s(37) = (  1.0000000  0.0000000  0.0000000 )
                  (  0.0000000  0.0000000 -1.0000000 )
                  (  0.0000000 -1.0000000  0.0000000 )


      isym = 38     inv. 180 deg rotation - cart. axis [0,1,-1]  

 cryst.   s(38) = (     1          0          0      )
                  (     0          0          1      )
                  (     0          1          0      )

 cart.    s(38) = (  1.0000000  0.0000000  0.0000000 )
                  (  0.0000000  0.0000000  1.0000000 )
                  (  0.0000000  1.0000000  0.0000000 )


      isym = 39     inv.  90 deg rotation - cart. axis [-1,0,0]  

 cryst.   s(39) = (     0          1         -1      )
                  (     0          0         -1      )
                  (     1          0         -1      )

 cart.    s(39) = ( -1.0000000  0.0000000  0.0000000 )
                  (  0.0000000  0.0000000 -1.0000000 )
                  (  0.0000000  1.0000000  0.0000000 )


      isym = 40     inv.  90 deg rotation - cart. axis [1,0,0]   

 cryst.   s(40) = (     0         -1          1      )
                  (     1         -1          0      )
                  (     0         -1          0      )

 cart.    s(40) = ( -1.0000000  0.0000000  0.0000000 )
                  (  0.0000000  0.0000000  1.0000000 )
                  (  0.0000000 -1.0000000  0.0000000 )


      isym = 41     inv. 120 deg rotation - cart. axis [-1,-1,-1]

 cryst.   s(41) = (     0          0         -1      )    f =( -0.2500000 )
                  (    -1          0          0      )       ( -0.2500000 )
                  (     0         -1          0      )       ( -0.2500000 )

 cart.    s(41) = (  0.0000000 -1.0000000  0.0000000 )    f =( -0.3535534 )
                  (  0.0000000  0.0000000 -1.0000000 )       ( -0.3535534 )
                  ( -1.0000000  0.0000000  0.0000000 )       ( -0.3535534 )


      isym = 42     inv. 120 deg rotation - cart. axis [-1,1,1]  

 cryst.   s(42) = (    -1          1          0      )    f =( -0.2500000 )
                  (     0          1         -1      )       ( -0.2500000 )
                  (     0          1          0      )       ( -0.2500000 )

 cart.    s(42) = (  0.0000000  1.0000000  0.0000000 )    f =( -0.3535534 )
                  (  0.0000000  0.0000000 -1.0000000 )       ( -0.3535534 )
                  (  1.0000000  0.0000000  0.0000000 )       ( -0.3535534 )


      isym = 43     inv. 120 deg rotation - cart. axis [1,1,-1]  

 cryst.   s(43) = (     1         -1          0      )    f =( -0.2500000 )
                  (     1          0          0      )       ( -0.2500000 )
                  (     1          0         -1      )       ( -0.2500000 )

 cart.    s(43) = (  0.0000000 -1.0000000  0.0000000 )    f =( -0.3535534 )
                  (  0.0000000  0.0000000  1.0000000 )       ( -0.3535534 )
                  (  1.0000000  0.0000000  0.0000000 )       ( -0.3535534 )


      isym = 44     inv. 120 deg rotation - cart. axis [1,-1,1]  

 cryst.   s(44) = (     0          0          1      )    f =( -0.2500000 )
                  (     0         -1          1      )       ( -0.2500000 )
                  (    -1          0          1      )       ( -0.2500000 )

 cart.    s(44) = (  0.0000000  1.0000000  0.0000000 )    f =( -0.3535534 )
                  (  0.0000000  0.0000000  1.0000000 )       ( -0.3535534 )
                  ( -1.0000000  0.0000000  0.0000000 )       ( -0.3535534 )


      isym = 45     inv. 120 deg rotation - cart. axis [1,1,1]   

 cryst.   s(45) = (     0         -1          0      )    f =( -0.2500000 )
                  (     0          0         -1      )       ( -0.2500000 )
                  (    -1          0          0      )       ( -0.2500000 )

 cart.    s(45) = (  0.0000000  0.0000000 -1.0000000 )    f =( -0.3535534 )
                  ( -1.0000000  0.0000000  0.0000000 )       ( -0.3535534 )
                  (  0.0000000 -1.0000000  0.0000000 )       ( -0.3535534 )


      isym = 46     inv. 120 deg rotation - cart. axis [-1,1,-1] 

 cryst.   s(46) = (     1          0         -1      )    f =( -0.2500000 )
                  (     1         -1          0      )       ( -0.2500000 )
                  (     1          0          0      )       ( -0.2500000 )

 cart.    s(46) = (  0.0000000  0.0000000 -1.0000000 )    f =( -0.3535534 )
                  (  1.0000000  0.0000000  0.0000000 )       ( -0.3535534 )
                  (  0.0000000  1.0000000  0.0000000 )       ( -0.3535534 )


      isym = 47     inv. 120 deg rotation - cart. axis [1,-1,-1] 

 cryst.   s(47) = (    -1          0          1      )    f =( -0.2500000 )
                  (     0          0          1      )       ( -0.2500000 )
                  (     0         -1          1      )       ( -0.2500000 )

 cart.    s(47) = (  0.0000000  0.0000000  1.0000000 )    f =( -0.3535534 )
                  (  1.0000000  0.0000000  0.0000000 )       ( -0.3535534 )
                  (  0.0000000 -1.0000000  0.0000000 )       ( -0.3535534 )


      isym = 48     inv. 120 deg rotation - cart. axis [-1,-1,1] 

 cryst.   s(48) = (     0          1          0      )    f =( -0.2500000 )
                  (    -1          1          0      )       ( -0.2500000 )
                  (     0          1         -1      )       ( -0.2500000 )

 cart.    s(48) = (  0.0000000  0.0000000  1.0000000 )    f =( -0.3535534 )
                  ( -1.0000000  0.0000000  0.0000000 )       ( -0.3535534 )
                  (  0.0000000  1.0000000  0.0000000 )       ( -0.3535534 )


   Cartesian axes

     site n.     atom                  positions (alat units)
         1           Sn  tau(   1) = (   0.0000000   0.0000000   0.0000000  )
         2           Sn  tau(   2) = (   0.3535534   0.3535534   0.3535534  )

   Crystallographic axes

     site n.     atom                  positions (cryst. coord.)
         1           Sn  tau(   1) = (  0.0000000  0.0000000  0.0000000  )
         2           Sn  tau(   2) = (  0.2500000  0.2500000  0.2500000  )

     number of k points=  2300  gaussian smearing, width (Ry)=  0.0001
                       cart. coord. in units 2pi/alat
        k(    1) = (   0.0000000   0.0000000   0.0000000), wk =   0.0000110
        k(    2) = (   0.0157135   0.0157135  -0.0157135), wk =   0.0000878
        k(    3) = (   0.0314270   0.0314270  -0.0314270), wk =   0.0000878
        k(    4) = (   0.0471405   0.0471405  -0.0471405), wk =   0.0000878
        k(    5) = (   0.0628539   0.0628539  -0.0628539), wk =   0.0000878
        k(    6) = (   0.0785674   0.0785674  -0.0785674), wk =   0.0000878
        k(    7) = (   0.0942809   0.0942809  -0.0942809), wk =   0.0000878
        k(    8) = (   0.1099944   0.1099944  -0.1099944), wk =   0.0000878
        k(    9) = (   0.1257079   0.1257079  -0.1257079), wk =   0.0000878
        k(   10) = (   0.1414214   0.1414214  -0.1414214), wk =   0.0000878
        k(   11) = (   0.1571348   0.1571348  -0.1571348), wk =   0.0000878
        k(   12) = (   0.1728483   0.1728483  -0.1728483), wk =   0.0000878
        k(   13) = (   0.1885618   0.1885618  -0.1885618), wk =   0.0000878
        k(   14) = (   0.2042753   0.2042753  -0.2042753), wk =   0.0000878
        k(   15) = (   0.2199888   0.2199888  -0.2199888), wk =   0.0000878
        k(   16) = (   0.2357023   0.2357023  -0.2357023), wk =   0.0000878
        k(   17) = (   0.2514157   0.2514157  -0.2514157), wk =   0.0000878
        k(   18) = (   0.2671292   0.2671292  -0.2671292), wk =   0.0000878
        k(   19) = (   0.2828427   0.2828427  -0.2828427), wk =   0.0000878
        k(   20) = (   0.2985562   0.2985562  -0.2985562), wk =   0.0000878
        k(   21) = (   0.3142697   0.3142697  -0.3142697), wk =   0.0000878
        k(   22) = (   0.3299832   0.3299832  -0.3299832), wk =   0.0000878
        k(   23) = (   0.3456966   0.3456966  -0.3456966), wk =   0.0000878
        k(   24) = (   0.0314270   0.0000000   0.0000000), wk =   0.0000658
        k(   25) = (   0.0471405   0.0157135  -0.0157135), wk =   0.0002634
        k(   26) = (   0.0628539   0.0314270  -0.0314270), wk =   0.0002634
        k(   27) = (   0.0785674   0.0471405  -0.0471405), wk =   0.0002634
        k(   28) = (   0.0942809   0.0628539  -0.0628539), wk =   0.0002634
        k(   29) = (   0.1099944   0.0785674  -0.0785674), wk =   0.0002634
        k(   30) = (   0.1257079   0.0942809  -0.0942809), wk =   0.0002634
        k(   31) = (   0.1414214   0.1099944  -0.1099944), wk =   0.0002634
        k(   32) = (   0.1571348   0.1257079  -0.1257079), wk =   0.0002634
        k(   33) = (   0.1728483   0.1414214  -0.1414214), wk =   0.0002634
        k(   34) = (   0.1885618   0.1571348  -0.1571348), wk =   0.0002634
        k(   35) = (   0.2042753   0.1728483  -0.1728483), wk =   0.0002634
        k(   36) = (   0.2199888   0.1885618  -0.1885618), wk =   0.0002634
        k(   37) = (   0.2357023   0.2042753  -0.2042753), wk =   0.0002634
        k(   38) = (   0.2514157   0.2199888  -0.2199888), wk =   0.0002634
        k(   39) = (   0.2671292   0.2357023  -0.2357023), wk =   0.0002634
        k(   40) = (   0.2828427   0.2514157  -0.2514157), wk =   0.0002634
        k(   41) = (   0.2985562   0.2671292  -0.2671292), wk =   0.0002634
        k(   42) = (   0.3142697   0.2828427  -0.2828427), wk =   0.0002634
        k(   43) = (   0.3299832   0.2985562  -0.2985562), wk =   0.0002634
        k(   44) = (   0.3456966   0.3142697  -0.3142697), wk =   0.0002634
        k(   45) = (   0.3614101   0.3299832  -0.3299832), wk =   0.0002634
        k(   46) = (  -0.3299832  -0.3614101   0.3614101), wk =   0.0002634
        k(   47) = (  -0.3142697  -0.3456966   0.3456966), wk =   0.0002634
        k(   48) = (  -0.2985562  -0.3299832   0.3299832), wk =   0.0002634
        k(   49) = (  -0.2828427  -0.3142697   0.3142697), wk =   0.0002634
        k(   50) = (  -0.2671292  -0.2985562   0.2985562), wk =   0.0002634
        k(   51) = (  -0.2514157  -0.2828427   0.2828427), wk =   0.0002634
        k(   52) = (  -0.2357023  -0.2671292   0.2671292), wk =   0.0002634
        k(   53) = (  -0.2199888  -0.2514157   0.2514157), wk =   0.0002634
        k(   54) = (  -0.2042753  -0.2357023   0.2357023), wk =   0.0002634
        k(   55) = (  -0.1885618  -0.2199888   0.2199888), wk =   0.0002634
        k(   56) = (  -0.1728483  -0.2042753   0.2042753), wk =   0.0002634
        k(   57) = (  -0.1571348  -0.1885618   0.1885618), wk =   0.0002634
        k(   58) = (  -0.1414214  -0.1728483   0.1728483), wk =   0.0002634
        k(   59) = (  -0.1257079  -0.1571348   0.1571348), wk =   0.0002634
        k(   60) = (  -0.1099944  -0.1414214   0.1414214), wk =   0.0002634
        k(   61) = (  -0.0942809  -0.1257079   0.1257079), wk =   0.0002634
        k(   62) = (  -0.0785674  -0.1099944   0.1099944), wk =   0.0002634
        k(   63) = (  -0.0628539  -0.0942809   0.0942809), wk =   0.0002634
        k(   64) = (  -0.0471405  -0.0785674   0.0785674), wk =   0.0002634
        k(   65) = (  -0.0314270  -0.0628539   0.0628539), wk =   0.0002634
        k(   66) = (  -0.0157135  -0.0471405   0.0471405), wk =   0.0002634
        k(   67) = (  -0.0000000  -0.0314270   0.0314270), wk =   0.0001317
        k(   68) = (   0.0628539   0.0000000   0.0000000), wk =   0.0000658
        k(   69) = (   0.0785674   0.0157135  -0.0157135), wk =   0.0002634
        k(   70) = (   0.0942809   0.0314270  -0.0314270), wk =   0.0002634
        k(   71) = (   0.1099944   0.0471405  -0.0471405), wk =   0.0002634
        k(   72) = (   0.1257079   0.0628539  -0.0628539), wk =   0.0002634
        k(   73) = (   0.1414214   0.0785674  -0.0785674), wk =   0.0002634
        k(   74) = (   0.1571348   0.0942809  -0.0942809), wk =   0.0002634
        k(   75) = (   0.1728483   0.1099944  -0.1099944), wk =   0.0002634
        k(   76) = (   0.1885618   0.1257079  -0.1257079), wk =   0.0002634
        k(   77) = (   0.2042753   0.1414214  -0.1414214), wk =   0.0002634
        k(   78) = (   0.2199888   0.1571348  -0.1571348), wk =   0.0002634
        k(   79) = (   0.2357023   0.1728483  -0.1728483), wk =   0.0002634
        k(   80) = (   0.2514157   0.1885618  -0.1885618), wk =   0.0002634
        k(   81) = (   0.2671292   0.2042753  -0.2042753), wk =   0.0002634
        k(   82) = (   0.2828427   0.2199888  -0.2199888), wk =   0.0002634
        k(   83) = (   0.2985562   0.2357023  -0.2357023), wk =   0.0002634
        k(   84) = (   0.3142697   0.2514157  -0.2514157), wk =   0.0002634
        k(   85) = (   0.3299832   0.2671292  -0.2671292), wk =   0.0002634
        k(   86) = (   0.3456966   0.2828427  -0.2828427), wk =   0.0002634
        k(   87) = (   0.3614101   0.2985562  -0.2985562), wk =   0.0002634
        k(   88) = (   0.3771236   0.3142697  -0.3142697), wk =   0.0002634
        k(   89) = (  -0.3142697  -0.3771236   0.3771236), wk =   0.0002634
        k(   90) = (  -0.2985562  -0.3614101   0.3614101), wk =   0.0002634
        k(   91) = (  -0.2828427  -0.3456966   0.3456966), wk =   0.0002634
        k(   92) = (  -0.2671292  -0.3299832   0.3299832), wk =   0.0002634
        k(   93) = (  -0.2514157  -0.3142697   0.3142697), wk =   0.0002634
        k(   94) = (  -0.2357023  -0.2985562   0.2985562), wk =   0.0002634
        k(   95) = (  -0.2199888  -0.2828427   0.2828427), wk =   0.0002634
        k(   96) = (  -0.2042753  -0.2671292   0.2671292), wk =   0.0002634
        k(   97) = (  -0.1885618  -0.2514157   0.2514157), wk =   0.0002634
        k(   98) = (  -0.1728483  -0.2357023   0.2357023), wk =   0.0002634
        k(   99) = (  -0.1571348  -0.2199888   0.2199888), wk =   0.0002634
        k(  100) = (  -0.1414214  -0.2042753   0.2042753), wk =   0.0002634
        k(  101) = (  -0.1257079  -0.1885618   0.1885618), wk =   0.0002634
        k(  102) = (  -0.1099944  -0.1728483   0.1728483), wk =   0.0002634
        k(  103) = (  -0.0942809  -0.1571348   0.1571348), wk =   0.0002634
        k(  104) = (  -0.0785674  -0.1414214   0.1414214), wk =   0.0002634
        k(  105) = (  -0.0628539  -0.1257079   0.1257079), wk =   0.0002634
        k(  106) = (  -0.0471405  -0.1099944   0.1099944), wk =   0.0002634
        k(  107) = (  -0.0314270  -0.0942809   0.0942809), wk =   0.0002634
        k(  108) = (  -0.0157135  -0.0785674   0.0785674), wk =   0.0002634
        k(  109) = (   0.0000000  -0.0628539   0.0628539), wk =   0.0001317
        k(  110) = (   0.0942809   0.0000000   0.0000000), wk =   0.0000658
        k(  111) = (   0.1099944   0.0157135  -0.0157135), wk =   0.0002634
        k(  112) = (   0.1257079   0.0314270  -0.0314270), wk =   0.0002634
        k(  113) = (   0.1414214   0.0471405  -0.0471405), wk =   0.0002634
        k(  114) = (   0.1571348   0.0628539  -0.0628539), wk =   0.0002634
        k(  115) = (   0.1728483   0.0785674  -0.0785674), wk =   0.0002634
        k(  116) = (   0.1885618   0.0942809  -0.0942809), wk =   0.0002634
        k(  117) = (   0.2042753   0.1099944  -0.1099944), wk =   0.0002634
        k(  118) = (   0.2199888   0.1257079  -0.1257079), wk =   0.0002634
        k(  119) = (   0.2357023   0.1414214  -0.1414214), wk =   0.0002634
        k(  120) = (   0.2514157   0.1571348  -0.1571348), wk =   0.0002634
        k(  121) = (   0.2671292   0.1728483  -0.1728483), wk =   0.0002634
        k(  122) = (   0.2828427   0.1885618  -0.1885618), wk =   0.0002634
        k(  123) = (   0.2985562   0.2042753  -0.2042753), wk =   0.0002634
        k(  124) = (   0.3142697   0.2199888  -0.2199888), wk =   0.0002634
        k(  125) = (   0.3299832   0.2357023  -0.2357023), wk =   0.0002634
        k(  126) = (   0.3456966   0.2514157  -0.2514157), wk =   0.0002634
        k(  127) = (   0.3614101   0.2671292  -0.2671292), wk =   0.0002634
        k(  128) = (   0.3771236   0.2828427  -0.2828427), wk =   0.0002634
        k(  129) = (   0.3928371   0.2985562  -0.2985562), wk =   0.0002634
        k(  130) = (  -0.2985562  -0.3928371   0.3928371), wk =   0.0002634
        k(  131) = (  -0.2828427  -0.3771236   0.3771236), wk =   0.0002634
        k(  132) = (  -0.2671292  -0.3614101   0.3614101), wk =   0.0002634
        k(  133) = (  -0.2514157  -0.3456966   0.3456966), wk =   0.0002634
        k(  134) = (  -0.2357023  -0.3299832   0.3299832), wk =   0.0002634
        k(  135) = (  -0.2199888  -0.3142697   0.3142697), wk =   0.0002634
        k(  136) = (  -0.2042753  -0.2985562   0.2985562), wk =   0.0002634
        k(  137) = (  -0.1885618  -0.2828427   0.2828427), wk =   0.0002634
        k(  138) = (  -0.1728483  -0.2671292   0.2671292), wk =   0.0002634
        k(  139) = (  -0.1571348  -0.2514157   0.2514157), wk =   0.0002634
        k(  140) = (  -0.1414214  -0.2357023   0.2357023), wk =   0.0002634
        k(  141) = (  -0.1257079  -0.2199888   0.2199888), wk =   0.0002634
        k(  142) = (  -0.1099944  -0.2042753   0.2042753), wk =   0.0002634
        k(  143) = (  -0.0942809  -0.1885618   0.1885618), wk =   0.0002634
        k(  144) = (  -0.0785674  -0.1728483   0.1728483), wk =   0.0002634
        k(  145) = (  -0.0628539  -0.1571348   0.1571348), wk =   0.0002634
        k(  146) = (  -0.0471405  -0.1414214   0.1414214), wk =   0.0002634
        k(  147) = (  -0.0314270  -0.1257079   0.1257079), wk =   0.0002634
        k(  148) = (  -0.0157135  -0.1099944   0.1099944), wk =   0.0002634
        k(  149) = (   0.0000000  -0.0942809   0.0942809), wk =   0.0001317
        k(  150) = (   0.1257079   0.0000000   0.0000000), wk =   0.0000658
        k(  151) = (   0.1414214   0.0157135  -0.0157135), wk =   0.0002634
        k(  152) = (   0.1571348   0.0314270  -0.0314270), wk =   0.0002634
        k(  153) = (   0.1728483   0.0471405  -0.0471405), wk =   0.0002634
        k(  154) = (   0.1885618   0.0628539  -0.0628539), wk =   0.0002634
        k(  155) = (   0.2042753   0.0785674  -0.0785674), wk =   0.0002634
        k(  156) = (   0.2199888   0.0942809  -0.0942809), wk =   0.0002634
        k(  157) = (   0.2357023   0.1099944  -0.1099944), wk =   0.0002634
        k(  158) = (   0.2514157   0.1257079  -0.1257079), wk =   0.0002634
        k(  159) = (   0.2671292   0.1414214  -0.1414214), wk =   0.0002634
        k(  160) = (   0.2828427   0.1571348  -0.1571348), wk =   0.0002634
        k(  161) = (   0.2985562   0.1728483  -0.1728483), wk =   0.0002634
        k(  162) = (   0.3142697   0.1885618  -0.1885618), wk =   0.0002634
        k(  163) = (   0.3299832   0.2042753  -0.2042753), wk =   0.0002634
        k(  164) = (   0.3456966   0.2199888  -0.2199888), wk =   0.0002634
        k(  165) = (   0.3614101   0.2357023  -0.2357023), wk =   0.0002634
        k(  166) = (   0.3771236   0.2514157  -0.2514157), wk =   0.0002634
        k(  167) = (   0.3928371   0.2671292  -0.2671292), wk =   0.0002634
        k(  168) = (   0.4085506   0.2828427  -0.2828427), wk =   0.0002634
        k(  169) = (  -0.2828427  -0.4085506   0.4085506), wk =   0.0002634
        k(  170) = (  -0.2671292  -0.3928371   0.3928371), wk =   0.0002634
        k(  171) = (  -0.2514157  -0.3771236   0.3771236), wk =   0.0002634
        k(  172) = (  -0.2357023  -0.3614101   0.3614101), wk =   0.0002634
        k(  173) = (  -0.2199888  -0.3456966   0.3456966), wk =   0.0002634
        k(  174) = (  -0.2042753  -0.3299832   0.3299832), wk =   0.0002634
        k(  175) = (  -0.1885618  -0.3142697   0.3142697), wk =   0.0002634
        k(  176) = (  -0.1728483  -0.2985562   0.2985562), wk =   0.0002634
        k(  177) = (  -0.1571348  -0.2828427   0.2828427), wk =   0.0002634
        k(  178) = (  -0.1414214  -0.2671292   0.2671292), wk =   0.0002634
        k(  179) = (  -0.1257079  -0.2514157   0.2514157), wk =   0.0002634
        k(  180) = (  -0.1099944  -0.2357023   0.2357023), wk =   0.0002634
        k(  181) = (  -0.0942809  -0.2199888   0.2199888), wk =   0.0002634
        k(  182) = (  -0.0785674  -0.2042753   0.2042753), wk =   0.0002634
        k(  183) = (  -0.0628539  -0.1885618   0.1885618), wk =   0.0002634
        k(  184) = (  -0.0471405  -0.1728483   0.1728483), wk =   0.0002634
        k(  185) = (  -0.0314270  -0.1571348   0.1571348), wk =   0.0002634
        k(  186) = (  -0.0157135  -0.1414214   0.1414214), wk =   0.0002634
        k(  187) = (  -0.0000000  -0.1257079   0.1257079), wk =   0.0001317
        k(  188) = (   0.1571348   0.0000000   0.0000000), wk =   0.0000658
        k(  189) = (   0.1728483   0.0157135  -0.0157135), wk =   0.0002634
        k(  190) = (   0.1885618   0.0314270  -0.0314270), wk =   0.0002634
        k(  191) = (   0.2042753   0.0471405  -0.0471405), wk =   0.0002634
        k(  192) = (   0.2199888   0.0628539  -0.0628539), wk =   0.0002634
        k(  193) = (   0.2357023   0.0785674  -0.0785674), wk =   0.0002634
        k(  194) = (   0.2514157   0.0942809  -0.0942809), wk =   0.0002634
        k(  195) = (   0.2671292   0.1099944  -0.1099944), wk =   0.0002634
        k(  196) = (   0.2828427   0.1257079  -0.1257079), wk =   0.0002634
        k(  197) = (   0.2985562   0.1414214  -0.1414214), wk =   0.0002634
        k(  198) = (   0.3142697   0.1571348  -0.1571348), wk =   0.0002634
        k(  199) = (   0.3299832   0.1728483  -0.1728483), wk =   0.0002634
        k(  200) = (   0.3456966   0.1885618  -0.1885618), wk =   0.0002634
        k(  201) = (   0.3614101   0.2042753  -0.2042753), wk =   0.0002634
        k(  202) = (   0.3771236   0.2199888  -0.2199888), wk =   0.0002634
        k(  203) = (   0.3928371   0.2357023  -0.2357023), wk =   0.0002634
        k(  204) = (   0.4085506   0.2514157  -0.2514157), wk =   0.0002634
        k(  205) = (   0.4242641   0.2671292  -0.2671292), wk =   0.0002634
        k(  206) = (  -0.2671292  -0.4242641   0.4242641), wk =   0.0002634
        k(  207) = (  -0.2514157  -0.4085506   0.4085506), wk =   0.0002634
        k(  208) = (  -0.2357023  -0.3928371   0.3928371), wk =   0.0002634
        k(  209) = (  -0.2199888  -0.3771236   0.3771236), wk =   0.0002634
        k(  210) = (  -0.2042753  -0.3614101   0.3614101), wk =   0.0002634
        k(  211) = (  -0.1885618  -0.3456966   0.3456966), wk =   0.0002634
        k(  212) = (  -0.1728483  -0.3299832   0.3299832), wk =   0.0002634
        k(  213) = (  -0.1571348  -0.3142697   0.3142697), wk =   0.0002634
        k(  214) = (  -0.1414214  -0.2985562   0.2985562), wk =   0.0002634
        k(  215) = (  -0.1257079  -0.2828427   0.2828427), wk =   0.0002634
        k(  216) = (  -0.1099944  -0.2671292   0.2671292), wk =   0.0002634
        k(  217) = (  -0.0942809  -0.2514157   0.2514157), wk =   0.0002634
        k(  218) = (  -0.0785674  -0.2357023   0.2357023), wk =   0.0002634
        k(  219) = (  -0.0628539  -0.2199888   0.2199888), wk =   0.0002634
        k(  220) = (  -0.0471405  -0.2042753   0.2042753), wk =   0.0002634
        k(  221) = (  -0.0314270  -0.1885618   0.1885618), wk =   0.0002634
        k(  222) = (  -0.0157135  -0.1728483   0.1728483), wk =   0.0002634
        k(  223) = (  -0.0000000  -0.1571348   0.1571348), wk =   0.0001317
        k(  224) = (   0.1885618   0.0000000   0.0000000), wk =   0.0000658
        k(  225) = (   0.2042753   0.0157135  -0.0157135), wk =   0.0002634
        k(  226) = (   0.2199888   0.0314270  -0.0314270), wk =   0.0002634
        k(  227) = (   0.2357023   0.0471405  -0.0471405), wk =   0.0002634
        k(  228) = (   0.2514157   0.0628539  -0.0628539), wk =   0.0002634
        k(  229) = (   0.2671292   0.0785674  -0.0785674), wk =   0.0002634
        k(  230) = (   0.2828427   0.0942809  -0.0942809), wk =   0.0002634
        k(  231) = (   0.2985562   0.1099944  -0.1099944), wk =   0.0002634
        k(  232) = (   0.3142697   0.1257079  -0.1257079), wk =   0.0002634
        k(  233) = (   0.3299832   0.1414214  -0.1414214), wk =   0.0002634
        k(  234) = (   0.3456966   0.1571348  -0.1571348), wk =   0.0002634
        k(  235) = (   0.3614101   0.1728483  -0.1728483), wk =   0.0002634
        k(  236) = (   0.3771236   0.1885618  -0.1885618), wk =   0.0002634
        k(  237) = (   0.3928371   0.2042753  -0.2042753), wk =   0.0002634
        k(  238) = (   0.4085506   0.2199888  -0.2199888), wk =   0.0002634
        k(  239) = (   0.4242641   0.2357023  -0.2357023), wk =   0.0002634
        k(  240) = (   0.4399776   0.2514157  -0.2514157), wk =   0.0002634
        k(  241) = (  -0.2514157  -0.4399776   0.4399776), wk =   0.0002634
        k(  242) = (  -0.2357023  -0.4242641   0.4242641), wk =   0.0002634
        k(  243) = (  -0.2199888  -0.4085506   0.4085506), wk =   0.0002634
        k(  244) = (  -0.2042753  -0.3928371   0.3928371), wk =   0.0002634
        k(  245) = (  -0.1885618  -0.3771236   0.3771236), wk =   0.0002634
        k(  246) = (  -0.1728483  -0.3614101   0.3614101), wk =   0.0002634
        k(  247) = (  -0.1571348  -0.3456966   0.3456966), wk =   0.0002634
        k(  248) = (  -0.1414214  -0.3299832   0.3299832), wk =   0.0002634
        k(  249) = (  -0.1257079  -0.3142697   0.3142697), wk =   0.0002634
        k(  250) = (  -0.1099944  -0.2985562   0.2985562), wk =   0.0002634
        k(  251) = (  -0.0942809  -0.2828427   0.2828427), wk =   0.0002634
        k(  252) = (  -0.0785674  -0.2671292   0.2671292), wk =   0.0002634
        k(  253) = (  -0.0628539  -0.2514157   0.2514157), wk =   0.0002634
        k(  254) = (  -0.0471405  -0.2357023   0.2357023), wk =   0.0002634
        k(  255) = (  -0.0314270  -0.2199888   0.2199888), wk =   0.0002634
        k(  256) = (  -0.0157135  -0.2042753   0.2042753), wk =   0.0002634
        k(  257) = (   0.0000000  -0.1885618   0.1885618), wk =   0.0001317
        k(  258) = (   0.2199888   0.0000000   0.0000000), wk =   0.0000658
        k(  259) = (   0.2357023   0.0157135  -0.0157135), wk =   0.0002634
        k(  260) = (   0.2514157   0.0314270  -0.0314270), wk =   0.0002634
        k(  261) = (   0.2671292   0.0471405  -0.0471405), wk =   0.0002634
        k(  262) = (   0.2828427   0.0628539  -0.0628539), wk =   0.0002634
        k(  263) = (   0.2985562   0.0785674  -0.0785674), wk =   0.0002634
        k(  264) = (   0.3142697   0.0942809  -0.0942809), wk =   0.0002634
        k(  265) = (   0.3299832   0.1099944  -0.1099944), wk =   0.0002634
        k(  266) = (   0.3456966   0.1257079  -0.1257079), wk =   0.0002634
        k(  267) = (   0.3614101   0.1414214  -0.1414214), wk =   0.0002634
        k(  268) = (   0.3771236   0.1571348  -0.1571348), wk =   0.0002634
        k(  269) = (   0.3928371   0.1728483  -0.1728483), wk =   0.0002634
        k(  270) = (   0.4085506   0.1885618  -0.1885618), wk =   0.0002634
        k(  271) = (   0.4242641   0.2042753  -0.2042753), wk =   0.0002634
        k(  272) = (   0.4399776   0.2199888  -0.2199888), wk =   0.0002634
        k(  273) = (   0.4556910   0.2357023  -0.2357023), wk =   0.0002634
        k(  274) = (  -0.2357023  -0.4556910   0.4556910), wk =   0.0002634
        k(  275) = (  -0.2199888  -0.4399776   0.4399776), wk =   0.0002634
        k(  276) = (  -0.2042753  -0.4242641   0.4242641), wk =   0.0002634
        k(  277) = (  -0.1885618  -0.4085506   0.4085506), wk =   0.0002634
        k(  278) = (  -0.1728483  -0.3928371   0.3928371), wk =   0.0002634
        k(  279) = (  -0.1571348  -0.3771236   0.3771236), wk =   0.0002634
        k(  280) = (  -0.1414214  -0.3614101   0.3614101), wk =   0.0002634
        k(  281) = (  -0.1257079  -0.3456966   0.3456966), wk =   0.0002634
        k(  282) = (  -0.1099944  -0.3299832   0.3299832), wk =   0.0002634
        k(  283) = (  -0.0942809  -0.3142697   0.3142697), wk =   0.0002634
        k(  284) = (  -0.0785674  -0.2985562   0.2985562), wk =   0.0002634
        k(  285) = (  -0.0628539  -0.2828427   0.2828427), wk =   0.0002634
        k(  286) = (  -0.0471405  -0.2671292   0.2671292), wk =   0.0002634
        k(  287) = (  -0.0314270  -0.2514157   0.2514157), wk =   0.0002634
        k(  288) = (  -0.0157135  -0.2357023   0.2357023), wk =   0.0002634
        k(  289) = (   0.0000000  -0.2199888   0.2199888), wk =   0.0001317
        k(  290) = (   0.2514157   0.0000000   0.0000000), wk =   0.0000658
        k(  291) = (   0.2671292   0.0157135  -0.0157135), wk =   0.0002634
        k(  292) = (   0.2828427   0.0314270  -0.0314270), wk =   0.0002634
        k(  293) = (   0.2985562   0.0471405  -0.0471405), wk =   0.0002634
        k(  294) = (   0.3142697   0.0628539  -0.0628539), wk =   0.0002634
        k(  295) = (   0.3299832   0.0785674  -0.0785674), wk =   0.0002634
        k(  296) = (   0.3456966   0.0942809  -0.0942809), wk =   0.0002634
        k(  297) = (   0.3614101   0.1099944  -0.1099944), wk =   0.0002634
        k(  298) = (   0.3771236   0.1257079  -0.1257079), wk =   0.0002634
        k(  299) = (   0.3928371   0.1414214  -0.1414214), wk =   0.0002634
        k(  300) = (   0.4085506   0.1571348  -0.1571348), wk =   0.0002634
        k(  301) = (   0.4242641   0.1728483  -0.1728483), wk =   0.0002634
        k(  302) = (   0.4399776   0.1885618  -0.1885618), wk =   0.0002634
        k(  303) = (   0.4556910   0.2042753  -0.2042753), wk =   0.0002634
        k(  304) = (   0.4714045   0.2199888  -0.2199888), wk =   0.0002634
        k(  305) = (  -0.2199888  -0.4714045   0.4714045), wk =   0.0002634
        k(  306) = (  -0.2042753  -0.4556910   0.4556910), wk =   0.0002634
        k(  307) = (  -0.1885618  -0.4399776   0.4399776), wk =   0.0002634
        k(  308) = (  -0.1728483  -0.4242641   0.4242641), wk =   0.0002634
        k(  309) = (  -0.1571348  -0.4085506   0.4085506), wk =   0.0002634
        k(  310) = (  -0.1414214  -0.3928371   0.3928371), wk =   0.0002634
        k(  311) = (  -0.1257079  -0.3771236   0.3771236), wk =   0.0002634
        k(  312) = (  -0.1099944  -0.3614101   0.3614101), wk =   0.0002634
        k(  313) = (  -0.0942809  -0.3456966   0.3456966), wk =   0.0002634
        k(  314) = (  -0.0785674  -0.3299832   0.3299832), wk =   0.0002634
        k(  315) = (  -0.0628539  -0.3142697   0.3142697), wk =   0.0002634
        k(  316) = (  -0.0471405  -0.2985562   0.2985562), wk =   0.0002634
        k(  317) = (  -0.0314270  -0.2828427   0.2828427), wk =   0.0002634
        k(  318) = (  -0.0157135  -0.2671292   0.2671292), wk =   0.0002634
        k(  319) = (  -0.0000000  -0.2514157   0.2514157), wk =   0.0001317
        k(  320) = (   0.2828427   0.0000000   0.0000000), wk =   0.0000658
        k(  321) = (   0.2985562   0.0157135  -0.0157135), wk =   0.0002634
        k(  322) = (   0.3142697   0.0314270  -0.0314270), wk =   0.0002634
        k(  323) = (   0.3299832   0.0471405  -0.0471405), wk =   0.0002634
        k(  324) = (   0.3456966   0.0628539  -0.0628539), wk =   0.0002634
        k(  325) = (   0.3614101   0.0785674  -0.0785674), wk =   0.0002634
        k(  326) = (   0.3771236   0.0942809  -0.0942809), wk =   0.0002634
        k(  327) = (   0.3928371   0.1099944  -0.1099944), wk =   0.0002634
        k(  328) = (   0.4085506   0.1257079  -0.1257079), wk =   0.0002634
        k(  329) = (   0.4242641   0.1414214  -0.1414214), wk =   0.0002634
        k(  330) = (   0.4399776   0.1571348  -0.1571348), wk =   0.0002634
        k(  331) = (   0.4556910   0.1728483  -0.1728483), wk =   0.0002634
        k(  332) = (   0.4714045   0.1885618  -0.1885618), wk =   0.0002634
        k(  333) = (   0.4871180   0.2042753  -0.2042753), wk =   0.0002634
        k(  334) = (  -0.2042753  -0.4871180   0.4871180), wk =   0.0002634
        k(  335) = (  -0.1885618  -0.4714045   0.4714045), wk =   0.0002634
        k(  336) = (  -0.1728483  -0.4556910   0.4556910), wk =   0.0002634
        k(  337) = (  -0.1571348  -0.4399776   0.4399776), wk =   0.0002634
        k(  338) = (  -0.1414214  -0.4242641   0.4242641), wk =   0.0002634
        k(  339) = (  -0.1257079  -0.4085506   0.4085506), wk =   0.0002634
        k(  340) = (  -0.1099944  -0.3928371   0.3928371), wk =   0.0002634
        k(  341) = (  -0.0942809  -0.3771236   0.3771236), wk =   0.0002634
        k(  342) = (  -0.0785674  -0.3614101   0.3614101), wk =   0.0002634
        k(  343) = (  -0.0628539  -0.3456966   0.3456966), wk =   0.0002634
        k(  344) = (  -0.0471405  -0.3299832   0.3299832), wk =   0.0002634
        k(  345) = (  -0.0314270  -0.3142697   0.3142697), wk =   0.0002634
        k(  346) = (  -0.0157135  -0.2985562   0.2985562), wk =   0.0002634
        k(  347) = (   0.0000000  -0.2828427   0.2828427), wk =   0.0001317
        k(  348) = (   0.3142697   0.0000000   0.0000000), wk =   0.0000658
        k(  349) = (   0.3299832   0.0157135  -0.0157135), wk =   0.0002634
        k(  350) = (   0.3456966   0.0314270  -0.0314270), wk =   0.0002634
        k(  351) = (   0.3614101   0.0471405  -0.0471405), wk =   0.0002634
        k(  352) = (   0.3771236   0.0628539  -0.0628539), wk =   0.0002634
        k(  353) = (   0.3928371   0.0785674  -0.0785674), wk =   0.0002634
        k(  354) = (   0.4085506   0.0942809  -0.0942809), wk =   0.0002634
        k(  355) = (   0.4242641   0.1099944  -0.1099944), wk =   0.0002634
        k(  356) = (   0.4399776   0.1257079  -0.1257079), wk =   0.0002634
        k(  357) = (   0.4556910   0.1414214  -0.1414214), wk =   0.0002634
        k(  358) = (   0.4714045   0.1571348  -0.1571348), wk =   0.0002634
        k(  359) = (   0.4871180   0.1728483  -0.1728483), wk =   0.0002634
        k(  360) = (   0.5028315   0.1885618  -0.1885618), wk =   0.0002634
        k(  361) = (  -0.1885618  -0.5028315   0.5028315), wk =   0.0002634
        k(  362) = (  -0.1728483  -0.4871180   0.4871180), wk =   0.0002634
        k(  363) = (  -0.1571348  -0.4714045   0.4714045), wk =   0.0002634
        k(  364) = (  -0.1414214  -0.4556910   0.4556910), wk =   0.0002634
        k(  365) = (  -0.1257079  -0.4399776   0.4399776), wk =   0.0002634
        k(  366) = (  -0.1099944  -0.4242641   0.4242641), wk =   0.0002634
        k(  367) = (  -0.0942809  -0.4085506   0.4085506), wk =   0.0002634
        k(  368) = (  -0.0785674  -0.3928371   0.3928371), wk =   0.0002634
        k(  369) = (  -0.0628539  -0.3771236   0.3771236), wk =   0.0002634
        k(  370) = (  -0.0471405  -0.3614101   0.3614101), wk =   0.0002634
        k(  371) = (  -0.0314270  -0.3456966   0.3456966), wk =   0.0002634
        k(  372) = (  -0.0157135  -0.3299832   0.3299832), wk =   0.0002634
        k(  373) = (   0.0000000  -0.3142697   0.3142697), wk =   0.0001317
        k(  374) = (   0.3456966   0.0000000   0.0000000), wk =   0.0000658
        k(  375) = (   0.3614101   0.0157135  -0.0157135), wk =   0.0002634
        k(  376) = (   0.3771236   0.0314270  -0.0314270), wk =   0.0002634
        k(  377) = (   0.3928371   0.0471405  -0.0471405), wk =   0.0002634
        k(  378) = (   0.4085506   0.0628539  -0.0628539), wk =   0.0002634
        k(  379) = (   0.4242641   0.0785674  -0.0785674), wk =   0.0002634
        k(  380) = (   0.4399776   0.0942809  -0.0942809), wk =   0.0002634
        k(  381) = (   0.4556910   0.1099944  -0.1099944), wk =   0.0002634
        k(  382) = (   0.4714045   0.1257079  -0.1257079), wk =   0.0002634
        k(  383) = (   0.4871180   0.1414214  -0.1414214), wk =   0.0002634
        k(  384) = (   0.5028315   0.1571348  -0.1571348), wk =   0.0002634
        k(  385) = (   0.5185450   0.1728483  -0.1728483), wk =   0.0002634
        k(  386) = (  -0.1728483  -0.5185450   0.5185450), wk =   0.0002634
        k(  387) = (  -0.1571348  -0.5028315   0.5028315), wk =   0.0002634
        k(  388) = (  -0.1414214  -0.4871180   0.4871180), wk =   0.0002634
        k(  389) = (  -0.1257079  -0.4714045   0.4714045), wk =   0.0002634
        k(  390) = (  -0.1099944  -0.4556910   0.4556910), wk =   0.0002634
        k(  391) = (  -0.0942809  -0.4399776   0.4399776), wk =   0.0002634
        k(  392) = (  -0.0785674  -0.4242641   0.4242641), wk =   0.0002634
        k(  393) = (  -0.0628539  -0.4085506   0.4085506), wk =   0.0002634
        k(  394) = (  -0.0471405  -0.3928371   0.3928371), wk =   0.0002634
        k(  395) = (  -0.0314270  -0.3771236   0.3771236), wk =   0.0002634
        k(  396) = (  -0.0157135  -0.3614101   0.3614101), wk =   0.0002634
        k(  397) = (  -0.0000000  -0.3456966   0.3456966), wk =   0.0001317
        k(  398) = (   0.3771236   0.0000000   0.0000000), wk =   0.0000658
        k(  399) = (   0.3928371   0.0157135  -0.0157135), wk =   0.0002634
        k(  400) = (   0.4085506   0.0314270  -0.0314270), wk =   0.0002634
        k(  401) = (   0.4242641   0.0471405  -0.0471405), wk =   0.0002634
        k(  402) = (   0.4399776   0.0628539  -0.0628539), wk =   0.0002634
        k(  403) = (   0.4556910   0.0785674  -0.0785674), wk =   0.0002634
        k(  404) = (   0.4714045   0.0942809  -0.0942809), wk =   0.0002634
        k(  405) = (   0.4871180   0.1099944  -0.1099944), wk =   0.0002634
        k(  406) = (   0.5028315   0.1257079  -0.1257079), wk =   0.0002634
        k(  407) = (   0.5185450   0.1414214  -0.1414214), wk =   0.0002634
        k(  408) = (   0.5342585   0.1571348  -0.1571348), wk =   0.0002634
        k(  409) = (  -0.1571348  -0.5342585   0.5342585), wk =   0.0002634
        k(  410) = (  -0.1414214  -0.5185450   0.5185450), wk =   0.0002634
        k(  411) = (  -0.1257079  -0.5028315   0.5028315), wk =   0.0002634
        k(  412) = (  -0.1099944  -0.4871180   0.4871180), wk =   0.0002634
        k(  413) = (  -0.0942809  -0.4714045   0.4714045), wk =   0.0002634
        k(  414) = (  -0.0785674  -0.4556910   0.4556910), wk =   0.0002634
        k(  415) = (  -0.0628539  -0.4399776   0.4399776), wk =   0.0002634
        k(  416) = (  -0.0471405  -0.4242641   0.4242641), wk =   0.0002634
        k(  417) = (  -0.0314270  -0.4085506   0.4085506), wk =   0.0002634
        k(  418) = (  -0.0157135  -0.3928371   0.3928371), wk =   0.0002634
        k(  419) = (  -0.0000000  -0.3771236   0.3771236), wk =   0.0001317
        k(  420) = (   0.4085506   0.0000000   0.0000000), wk =   0.0000658
        k(  421) = (   0.4242641   0.0157135  -0.0157135), wk =   0.0002634
        k(  422) = (   0.4399776   0.0314270  -0.0314270), wk =   0.0002634
        k(  423) = (   0.4556910   0.0471405  -0.0471405), wk =   0.0002634
        k(  424) = (   0.4714045   0.0628539  -0.0628539), wk =   0.0002634
        k(  425) = (   0.4871180   0.0785674  -0.0785674), wk =   0.0002634
        k(  426) = (   0.5028315   0.0942809  -0.0942809), wk =   0.0002634
        k(  427) = (   0.5185450   0.1099944  -0.1099944), wk =   0.0002634
        k(  428) = (   0.5342585   0.1257079  -0.1257079), wk =   0.0002634
        k(  429) = (   0.5499719   0.1414214  -0.1414214), wk =   0.0002634
        k(  430) = (  -0.1414214  -0.5499719   0.5499719), wk =   0.0002634
        k(  431) = (  -0.1257079  -0.5342585   0.5342585), wk =   0.0002634
        k(  432) = (  -0.1099944  -0.5185450   0.5185450), wk =   0.0002634
        k(  433) = (  -0.0942809  -0.5028315   0.5028315), wk =   0.0002634
        k(  434) = (  -0.0785674  -0.4871180   0.4871180), wk =   0.0002634
        k(  435) = (  -0.0628539  -0.4714045   0.4714045), wk =   0.0002634
        k(  436) = (  -0.0471405  -0.4556910   0.4556910), wk =   0.0002634
        k(  437) = (  -0.0314270  -0.4399776   0.4399776), wk =   0.0002634
        k(  438) = (  -0.0157135  -0.4242641   0.4242641), wk =   0.0002634
        k(  439) = (   0.0000000  -0.4085506   0.4085506), wk =   0.0001317
        k(  440) = (   0.4399776   0.0000000   0.0000000), wk =   0.0000658
        k(  441) = (   0.4556910   0.0157135  -0.0157135), wk =   0.0002634
        k(  442) = (   0.4714045   0.0314270  -0.0314270), wk =   0.0002634
        k(  443) = (   0.4871180   0.0471405  -0.0471405), wk =   0.0002634
        k(  444) = (   0.5028315   0.0628539  -0.0628539), wk =   0.0002634
        k(  445) = (   0.5185450   0.0785674  -0.0785674), wk =   0.0002634
        k(  446) = (   0.5342585   0.0942809  -0.0942809), wk =   0.0002634
        k(  447) = (   0.5499719   0.1099944  -0.1099944), wk =   0.0002634
        k(  448) = (   0.5656854   0.1257079  -0.1257079), wk =   0.0002634
        k(  449) = (  -0.1257079  -0.5656854   0.5656854), wk =   0.0002634
        k(  450) = (  -0.1099944  -0.5499719   0.5499719), wk =   0.0002634
        k(  451) = (  -0.0942809  -0.5342585   0.5342585), wk =   0.0002634
        k(  452) = (  -0.0785674  -0.5185450   0.5185450), wk =   0.0002634
        k(  453) = (  -0.0628539  -0.5028315   0.5028315), wk =   0.0002634
        k(  454) = (  -0.0471405  -0.4871180   0.4871180), wk =   0.0002634
        k(  455) = (  -0.0314270  -0.4714045   0.4714045), wk =   0.0002634
        k(  456) = (  -0.0157135  -0.4556910   0.4556910), wk =   0.0002634
        k(  457) = (   0.0000000  -0.4399776   0.4399776), wk =   0.0001317
        k(  458) = (   0.4714045   0.0000000   0.0000000), wk =   0.0000658
        k(  459) = (   0.4871180   0.0157135  -0.0157135), wk =   0.0002634
        k(  460) = (   0.5028315   0.0314270  -0.0314270), wk =   0.0002634
        k(  461) = (   0.5185450   0.0471405  -0.0471405), wk =   0.0002634
        k(  462) = (   0.5342585   0.0628539  -0.0628539), wk =   0.0002634
        k(  463) = (   0.5499719   0.0785674  -0.0785674), wk =   0.0002634
        k(  464) = (   0.5656854   0.0942809  -0.0942809), wk =   0.0002634
        k(  465) = (   0.5813989   0.1099944  -0.1099944), wk =   0.0002634
        k(  466) = (  -0.1099944  -0.5813989   0.5813989), wk =   0.0002634
        k(  467) = (  -0.0942809  -0.5656854   0.5656854), wk =   0.0002634
        k(  468) = (  -0.0785674  -0.5499719   0.5499719), wk =   0.0002634
        k(  469) = (  -0.0628539  -0.5342585   0.5342585), wk =   0.0002634
        k(  470) = (  -0.0471405  -0.5185450   0.5185450), wk =   0.0002634
        k(  471) = (  -0.0314270  -0.5028315   0.5028315), wk =   0.0002634
        k(  472) = (  -0.0157135  -0.4871180   0.4871180), wk =   0.0002634
        k(  473) = (  -0.0000000  -0.4714045   0.4714045), wk =   0.0001317
        k(  474) = (   0.5028315   0.0000000   0.0000000), wk =   0.0000658
        k(  475) = (   0.5185450   0.0157135  -0.0157135), wk =   0.0002634
        k(  476) = (   0.5342585   0.0314270  -0.0314270), wk =   0.0002634
        k(  477) = (   0.5499719   0.0471405  -0.0471405), wk =   0.0002634
        k(  478) = (   0.5656854   0.0628539  -0.0628539), wk =   0.0002634
        k(  479) = (   0.5813989   0.0785674  -0.0785674), wk =   0.0002634
        k(  480) = (   0.5971124   0.0942809  -0.0942809), wk =   0.0002634
        k(  481) = (  -0.0942809  -0.5971124   0.5971124), wk =   0.0002634
        k(  482) = (  -0.0785674  -0.5813989   0.5813989), wk =   0.0002634
        k(  483) = (  -0.0628539  -0.5656854   0.5656854), wk =   0.0002634
        k(  484) = (  -0.0471405  -0.5499719   0.5499719), wk =   0.0002634
        k(  485) = (  -0.0314270  -0.5342585   0.5342585), wk =   0.0002634
        k(  486) = (  -0.0157135  -0.5185450   0.5185450), wk =   0.0002634
        k(  487) = (   0.0000000  -0.5028315   0.5028315), wk =   0.0001317
        k(  488) = (   0.5342585   0.0000000   0.0000000), wk =   0.0000658
        k(  489) = (   0.5499719   0.0157135  -0.0157135), wk =   0.0002634
        k(  490) = (   0.5656854   0.0314270  -0.0314270), wk =   0.0002634
        k(  491) = (   0.5813989   0.0471405  -0.0471405), wk =   0.0002634
        k(  492) = (   0.5971124   0.0628539  -0.0628539), wk =   0.0002634
        k(  493) = (   0.6128259   0.0785674  -0.0785674), wk =   0.0002634
        k(  494) = (  -0.0785674  -0.6128259   0.6128259), wk =   0.0002634
        k(  495) = (  -0.0628539  -0.5971124   0.5971124), wk =   0.0002634
        k(  496) = (  -0.0471405  -0.5813989   0.5813989), wk =   0.0002634
        k(  497) = (  -0.0314270  -0.5656854   0.5656854), wk =   0.0002634
        k(  498) = (  -0.0157135  -0.5499719   0.5499719), wk =   0.0002634
        k(  499) = (   0.0000000  -0.5342585   0.5342585), wk =   0.0001317
        k(  500) = (   0.5656854   0.0000000   0.0000000), wk =   0.0000658
        k(  501) = (   0.5813989   0.0157135  -0.0157135), wk =   0.0002634
        k(  502) = (   0.5971124   0.0314270  -0.0314270), wk =   0.0002634
        k(  503) = (   0.6128259   0.0471405  -0.0471405), wk =   0.0002634
        k(  504) = (   0.6285394   0.0628539  -0.0628539), wk =   0.0002634
        k(  505) = (  -0.0628539  -0.6285394   0.6285394), wk =   0.0002634
        k(  506) = (  -0.0471405  -0.6128259   0.6128259), wk =   0.0002634
        k(  507) = (  -0.0314270  -0.5971124   0.5971124), wk =   0.0002634
        k(  508) = (  -0.0157135  -0.5813989   0.5813989), wk =   0.0002634
        k(  509) = (   0.0000000  -0.5656854   0.5656854), wk =   0.0001317
        k(  510) = (   0.5971124   0.0000000   0.0000000), wk =   0.0000658
        k(  511) = (   0.6128259   0.0157135  -0.0157135), wk =   0.0002634
        k(  512) = (   0.6285394   0.0314270  -0.0314270), wk =   0.0002634
        k(  513) = (   0.6442528   0.0471405  -0.0471405), wk =   0.0002634
        k(  514) = (  -0.0471405  -0.6442528   0.6442528), wk =   0.0002634
        k(  515) = (  -0.0314270  -0.6285394   0.6285394), wk =   0.0002634
        k(  516) = (  -0.0157135  -0.6128259   0.6128259), wk =   0.0002634
        k(  517) = (  -0.0000000  -0.5971124   0.5971124), wk =   0.0001317
        k(  518) = (   0.6285394   0.0000000   0.0000000), wk =   0.0000658
        k(  519) = (   0.6442528   0.0157135  -0.0157135), wk =   0.0002634
        k(  520) = (   0.6599663   0.0314270  -0.0314270), wk =   0.0002634
        k(  521) = (  -0.0314270  -0.6599663   0.6599663), wk =   0.0002634
        k(  522) = (  -0.0157135  -0.6442528   0.6442528), wk =   0.0002634
        k(  523) = (   0.0000000  -0.6285394   0.6285394), wk =   0.0001317
        k(  524) = (   0.6599663   0.0000000   0.0000000), wk =   0.0000658
        k(  525) = (   0.6756798   0.0157135  -0.0157135), wk =   0.0002634
        k(  526) = (  -0.0157135  -0.6756798   0.6756798), wk =   0.0002634
        k(  527) = (   0.0000000  -0.6599663   0.6599663), wk =   0.0001317
        k(  528) = (   0.6913933   0.0000000   0.0000000), wk =   0.0000658
        k(  529) = (  -0.0000000  -0.6913933   0.6913933), wk =   0.0001317
        k(  530) = (   0.0628539   0.0314270   0.0000000), wk =   0.0002634
        k(  531) = (   0.0785674   0.0471405  -0.0157135), wk =   0.0005267
        k(  532) = (   0.0942809   0.0628539  -0.0314270), wk =   0.0005267
        k(  533) = (   0.1099944   0.0785674  -0.0471405), wk =   0.0005267
        k(  534) = (   0.1257079   0.0942809  -0.0628539), wk =   0.0005267
        k(  535) = (   0.1414214   0.1099944  -0.0785674), wk =   0.0005267
        k(  536) = (   0.1571348   0.1257079  -0.0942809), wk =   0.0005267
        k(  537) = (   0.1728483   0.1414214  -0.1099944), wk =   0.0005267
        k(  538) = (   0.1885618   0.1571348  -0.1257079), wk =   0.0005267
        k(  539) = (   0.2042753   0.1728483  -0.1414214), wk =   0.0005267
        k(  540) = (   0.2199888   0.1885618  -0.1571348), wk =   0.0005267
        k(  541) = (   0.2357023   0.2042753  -0.1728483), wk =   0.0005267
        k(  542) = (   0.2514157   0.2199888  -0.1885618), wk =   0.0005267
        k(  543) = (   0.2671292   0.2357023  -0.2042753), wk =   0.0005267
        k(  544) = (   0.2828427   0.2514157  -0.2199888), wk =   0.0005267
        k(  545) = (   0.2985562   0.2671292  -0.2357023), wk =   0.0005267
        k(  546) = (   0.3142697   0.2828427  -0.2514157), wk =   0.0005267
        k(  547) = (   0.3299832   0.2985562  -0.2671292), wk =   0.0005267
        k(  548) = (   0.3456966   0.3142697  -0.2828427), wk =   0.0005267
        k(  549) = (   0.3614101   0.3299832  -0.2985562), wk =   0.0005267
        k(  550) = (  -0.3299832  -0.3614101   0.3928371), wk =   0.0005267
        k(  551) = (   0.0942809   0.0314270   0.0000000), wk =   0.0002634
        k(  552) = (   0.1099944   0.0471405  -0.0157135), wk =   0.0005267
        k(  553) = (   0.1257079   0.0628539  -0.0314270), wk =   0.0005267
        k(  554) = (   0.1414214   0.0785674  -0.0471405), wk =   0.0005267
        k(  555) = (   0.1571348   0.0942809  -0.0628539), wk =   0.0005267
        k(  556) = (   0.1728483   0.1099944  -0.0785674), wk =   0.0005267
        k(  557) = (   0.1885618   0.1257079  -0.0942809), wk =   0.0005267
        k(  558) = (   0.2042753   0.1414214  -0.1099944), wk =   0.0005267
        k(  559) = (   0.2199888   0.1571348  -0.1257079), wk =   0.0005267
        k(  560) = (   0.2357023   0.1728483  -0.1414214), wk =   0.0005267
        k(  561) = (   0.2514157   0.1885618  -0.1571348), wk =   0.0005267
        k(  562) = (   0.2671292   0.2042753  -0.1728483), wk =   0.0005267
        k(  563) = (   0.2828427   0.2199888  -0.1885618), wk =   0.0005267
        k(  564) = (   0.2985562   0.2357023  -0.2042753), wk =   0.0005267
        k(  565) = (   0.3142697   0.2514157  -0.2199888), wk =   0.0005267
        k(  566) = (   0.3299832   0.2671292  -0.2357023), wk =   0.0005267
        k(  567) = (   0.3456966   0.2828427  -0.2514157), wk =   0.0005267
        k(  568) = (   0.3614101   0.2985562  -0.2671292), wk =   0.0005267
        k(  569) = (   0.3771236   0.3142697  -0.2828427), wk =   0.0005267
        k(  570) = (  -0.3142697  -0.3771236   0.4085506), wk =   0.0005267
        k(  571) = (  -0.2985562  -0.3614101   0.3928371), wk =   0.0005267
        k(  572) = (  -0.2828427  -0.3456966   0.3771236), wk =   0.0005267
        k(  573) = (  -0.2671292  -0.3299832   0.3614101), wk =   0.0005267
        k(  574) = (  -0.2514157  -0.3142697   0.3456966), wk =   0.0005267
        k(  575) = (  -0.2357023  -0.2985562   0.3299832), wk =   0.0005267
        k(  576) = (  -0.2199888  -0.2828427   0.3142697), wk =   0.0005267
        k(  577) = (  -0.2042753  -0.2671292   0.2985562), wk =   0.0005267
        k(  578) = (  -0.1885618  -0.2514157   0.2828427), wk =   0.0005267
        k(  579) = (  -0.1728483  -0.2357023   0.2671292), wk =   0.0005267
        k(  580) = (  -0.1571348  -0.2199888   0.2514157), wk =   0.0005267
        k(  581) = (  -0.1414214  -0.2042753   0.2357023), wk =   0.0005267
        k(  582) = (  -0.1257079  -0.1885618   0.2199888), wk =   0.0005267
        k(  583) = (  -0.1099944  -0.1728483   0.2042753), wk =   0.0005267
        k(  584) = (  -0.0942809  -0.1571348   0.1885618), wk =   0.0005267
        k(  585) = (  -0.0785674  -0.1414214   0.1728483), wk =   0.0005267
        k(  586) = (  -0.0628539  -0.1257079   0.1571348), wk =   0.0005267
        k(  587) = (  -0.0471405  -0.1099944   0.1414214), wk =   0.0005267
        k(  588) = (  -0.0314270  -0.0942809   0.1257079), wk =   0.0005267
        k(  589) = (  -0.0157135  -0.0785674   0.1099944), wk =   0.0005267
        k(  590) = (   0.0000000  -0.0628539   0.0942809), wk =   0.0002634
        k(  591) = (   0.1257079   0.0314270   0.0000000), wk =   0.0002634
        k(  592) = (   0.1414214   0.0471405  -0.0157135), wk =   0.0005267
        k(  593) = (   0.1571348   0.0628539  -0.0314270), wk =   0.0005267
        k(  594) = (   0.1728483   0.0785674  -0.0471405), wk =   0.0005267
        k(  595) = (   0.1885618   0.0942809  -0.0628539), wk =   0.0005267
        k(  596) = (   0.2042753   0.1099944  -0.0785674), wk =   0.0005267
        k(  597) = (   0.2199888   0.1257079  -0.0942809), wk =   0.0005267
        k(  598) = (   0.2357023   0.1414214  -0.1099944), wk =   0.0005267
        k(  599) = (   0.2514157   0.1571348  -0.1257079), wk =   0.0005267
        k(  600) = (   0.2671292   0.1728483  -0.1414214), wk =   0.0005267
        k(  601) = (   0.2828427   0.1885618  -0.1571348), wk =   0.0005267
        k(  602) = (   0.2985562   0.2042753  -0.1728483), wk =   0.0005267
        k(  603) = (   0.3142697   0.2199888  -0.1885618), wk =   0.0005267
        k(  604) = (   0.3299832   0.2357023  -0.2042753), wk =   0.0005267
        k(  605) = (   0.3456966   0.2514157  -0.2199888), wk =   0.0005267
        k(  606) = (   0.3614101   0.2671292  -0.2357023), wk =   0.0005267
        k(  607) = (   0.3771236   0.2828427  -0.2514157), wk =   0.0005267
        k(  608) = (   0.3928371   0.2985562  -0.2671292), wk =   0.0005267
        k(  609) = (  -0.2985562  -0.3928371   0.4242641), wk =   0.0005267
        k(  610) = (  -0.2828427  -0.3771236   0.4085506), wk =   0.0005267
        k(  611) = (  -0.2671292  -0.3614101   0.3928371), wk =   0.0005267
        k(  612) = (  -0.2514157  -0.3456966   0.3771236), wk =   0.0005267
        k(  613) = (  -0.2357023  -0.3299832   0.3614101), wk =   0.0005267
        k(  614) = (  -0.2199888  -0.3142697   0.3456966), wk =   0.0005267
        k(  615) = (  -0.2042753  -0.2985562   0.3299832), wk =   0.0005267
        k(  616) = (  -0.1885618  -0.2828427   0.3142697), wk =   0.0005267
        k(  617) = (  -0.1728483  -0.2671292   0.2985562), wk =   0.0005267
        k(  618) = (  -0.1571348  -0.2514157   0.2828427), wk =   0.0005267
        k(  619) = (  -0.1414214  -0.2357023   0.2671292), wk =   0.0005267
        k(  620) = (  -0.1257079  -0.2199888   0.2514157), wk =   0.0005267
        k(  621) = (  -0.1099944  -0.2042753   0.2357023), wk =   0.0005267
        k(  622) = (  -0.0942809  -0.1885618   0.2199888), wk =   0.0005267
        k(  623) = (  -0.0785674  -0.1728483   0.2042753), wk =   0.0005267
        k(  624) = (  -0.0628539  -0.1571348   0.1885618), wk =   0.0005267
        k(  625) = (  -0.0471405  -0.1414214   0.1728483), wk =   0.0005267
        k(  626) = (  -0.0314270  -0.1257079   0.1571348), wk =   0.0005267
        k(  627) = (  -0.0157135  -0.1099944   0.1414214), wk =   0.0005267
        k(  628) = (   0.0000000  -0.0942809   0.1257079), wk =   0.0002634
        k(  629) = (   0.1571348   0.0314270   0.0000000), wk =   0.0002634
        k(  630) = (   0.1728483   0.0471405  -0.0157135), wk =   0.0005267
        k(  631) = (   0.1885618   0.0628539  -0.0314270), wk =   0.0005267
        k(  632) = (   0.2042753   0.0785674  -0.0471405), wk =   0.0005267
        k(  633) = (   0.2199888   0.0942809  -0.0628539), wk =   0.0005267
        k(  634) = (   0.2357023   0.1099944  -0.0785674), wk =   0.0005267
        k(  635) = (   0.2514157   0.1257079  -0.0942809), wk =   0.0005267
        k(  636) = (   0.2671292   0.1414214  -0.1099944), wk =   0.0005267
        k(  637) = (   0.2828427   0.1571348  -0.1257079), wk =   0.0005267
        k(  638) = (   0.2985562   0.1728483  -0.1414214), wk =   0.0005267
        k(  639) = (   0.3142697   0.1885618  -0.1571348), wk =   0.0005267
        k(  640) = (   0.3299832   0.2042753  -0.1728483), wk =   0.0005267
        k(  641) = (   0.3456966   0.2199888  -0.1885618), wk =   0.0005267
        k(  642) = (   0.3614101   0.2357023  -0.2042753), wk =   0.0005267
        k(  643) = (   0.3771236   0.2514157  -0.2199888), wk =   0.0005267
        k(  644) = (   0.3928371   0.2671292  -0.2357023), wk =   0.0005267
        k(  645) = (   0.4085506   0.2828427  -0.2514157), wk =   0.0005267
        k(  646) = (  -0.2828427  -0.4085506   0.4399776), wk =   0.0005267
        k(  647) = (  -0.2671292  -0.3928371   0.4242641), wk =   0.0005267
        k(  648) = (  -0.2514157  -0.3771236   0.4085506), wk =   0.0005267
        k(  649) = (  -0.2357023  -0.3614101   0.3928371), wk =   0.0005267
        k(  650) = (  -0.2199888  -0.3456966   0.3771236), wk =   0.0005267
        k(  651) = (  -0.2042753  -0.3299832   0.3614101), wk =   0.0005267
        k(  652) = (  -0.1885618  -0.3142697   0.3456966), wk =   0.0005267
        k(  653) = (  -0.1728483  -0.2985562   0.3299832), wk =   0.0005267
        k(  654) = (  -0.1571348  -0.2828427   0.3142697), wk =   0.0005267
        k(  655) = (  -0.1414214  -0.2671292   0.2985562), wk =   0.0005267
        k(  656) = (  -0.1257079  -0.2514157   0.2828427), wk =   0.0005267
        k(  657) = (  -0.1099944  -0.2357023   0.2671292), wk =   0.0005267
        k(  658) = (  -0.0942809  -0.2199888   0.2514157), wk =   0.0005267
        k(  659) = (  -0.0785674  -0.2042753   0.2357023), wk =   0.0005267
        k(  660) = (  -0.0628539  -0.1885618   0.2199888), wk =   0.0005267
        k(  661) = (  -0.0471405  -0.1728483   0.2042753), wk =   0.0005267
        k(  662) = (  -0.0314270  -0.1571348   0.1885618), wk =   0.0005267
        k(  663) = (  -0.0157135  -0.1414214   0.1728483), wk =   0.0005267
        k(  664) = (  -0.0000000  -0.1257079   0.1571348), wk =   0.0002634
        k(  665) = (   0.1885618   0.0314270   0.0000000), wk =   0.0002634
        k(  666) = (   0.2042753   0.0471405  -0.0157135), wk =   0.0005267
        k(  667) = (   0.2199888   0.0628539  -0.0314270), wk =   0.0005267
        k(  668) = (   0.2357023   0.0785674  -0.0471405), wk =   0.0005267
        k(  669) = (   0.2514157   0.0942809  -0.0628539), wk =   0.0005267
        k(  670) = (   0.2671292   0.1099944  -0.0785674), wk =   0.0005267
        k(  671) = (   0.2828427   0.1257079  -0.0942809), wk =   0.0005267
        k(  672) = (   0.2985562   0.1414214  -0.1099944), wk =   0.0005267
        k(  673) = (   0.3142697   0.1571348  -0.1257079), wk =   0.0005267
        k(  674) = (   0.3299832   0.1728483  -0.1414214), wk =   0.0005267
        k(  675) = (   0.3456966   0.1885618  -0.1571348), wk =   0.0005267
        k(  676) = (   0.3614101   0.2042753  -0.1728483), wk =   0.0005267
        k(  677) = (   0.3771236   0.2199888  -0.1885618), wk =   0.0005267
        k(  678) = (   0.3928371   0.2357023  -0.2042753), wk =   0.0005267
        k(  679) = (   0.4085506   0.2514157  -0.2199888), wk =   0.0005267
        k(  680) = (   0.4242641   0.2671292  -0.2357023), wk =   0.0005267
        k(  681) = (  -0.2671292  -0.4242641   0.4556910), wk =   0.0005267
        k(  682) = (  -0.2514157  -0.4085506   0.4399776), wk =   0.0005267
        k(  683) = (  -0.2357023  -0.3928371   0.4242641), wk =   0.0005267
        k(  684) = (  -0.2199888  -0.3771236   0.4085506), wk =   0.0005267
        k(  685) = (  -0.2042753  -0.3614101   0.3928371), wk =   0.0005267
        k(  686) = (  -0.1885618  -0.3456966   0.3771236), wk =   0.0005267
        k(  687) = (  -0.1728483  -0.3299832   0.3614101), wk =   0.0005267
        k(  688) = (  -0.1571348  -0.3142697   0.3456966), wk =   0.0005267
        k(  689) = (  -0.1414214  -0.2985562   0.3299832), wk =   0.0005267
        k(  690) = (  -0.1257079  -0.2828427   0.3142697), wk =   0.0005267
        k(  691) = (  -0.1099944  -0.2671292   0.2985562), wk =   0.0005267
        k(  692) = (  -0.0942809  -0.2514157   0.2828427), wk =   0.0005267
        k(  693) = (  -0.0785674  -0.2357023   0.2671292), wk =   0.0005267
        k(  694) = (  -0.0628539  -0.2199888   0.2514157), wk =   0.0005267
        k(  695) = (  -0.0471405  -0.2042753   0.2357023), wk =   0.0005267
        k(  696) = (  -0.0314270  -0.1885618   0.2199888), wk =   0.0005267
        k(  697) = (  -0.0157135  -0.1728483   0.2042753), wk =   0.0005267
        k(  698) = (  -0.0000000  -0.1571348   0.1885618), wk =   0.0002634
        k(  699) = (   0.2199888   0.0314270   0.0000000), wk =   0.0002634
        k(  700) = (   0.2357023   0.0471405  -0.0157135), wk =   0.0005267
        k(  701) = (   0.2514157   0.0628539  -0.0314270), wk =   0.0005267
        k(  702) = (   0.2671292   0.0785674  -0.0471405), wk =   0.0005267
[...]
     1.0000   1.0000   1.0000   1.0000   0.0000   0.0000   0.0000   0.0000
     0.0000   0.0000   0.0000   0.0000

          k =-0.0314-0.3457 0.6285 ( 15376 PWs)   bands (ev):

   -13.2834 -13.2834 -13.2766 -13.2766 -13.1288 -13.1288 -13.0820 -13.0820
   -13.0667 -13.0667 -13.0376 -13.0376 -13.0297 -13.0297 -12.9966 -12.9966
   -12.8520 -12.8520 -12.8455 -12.8455   0.7429   0.7429   1.5727   1.5727
     5.4524   5.4524   5.9777   5.9777  11.1379  11.1379  11.7193  11.7193
    12.3520  12.3520  12.9530  12.9530

     occupation numbers 
     1.0000   1.0000   1.0000   1.0000   1.0000   1.0000   1.0000   1.0000
     1.0000   1.0000   1.0000   1.0000   1.0000   1.0000   1.0000   1.0000
     1.0000   1.0000   1.0000   1.0000   1.0000   1.0000   1.0000   1.0000
     1.0000   1.0000   1.0000   1.0000   0.0000   0.0000   0.0000   0.0000
     0.0000   0.0000   0.0000   0.0000

          k =-0.0157-0.3300 0.6128 ( 15376 PWs)   bands (ev):

   -13.2830 -13.2830 -13.2762 -13.2762 -13.1320 -13.1320 -13.0792 -13.0792
   -13.0705 -13.0705 -13.0383 -13.0383 -13.0271 -13.0271 -12.9941 -12.9941
   -12.8525 -12.8525 -12.8460 -12.8460   0.6679   0.6679   1.6527   1.6527
     5.4543   5.4543   6.0199   6.0199  11.1383  11.1383  11.6196  11.6196
    12.2018  12.2018  13.2407  13.2407

     occupation numbers 
     1.0000   1.0000   1.0000   1.0000   1.0000   1.0000   1.0000   1.0000
     1.0000   1.0000   1.0000   1.0000   1.0000   1.0000   1.0000   1.0000
     1.0000   1.0000   1.0000   1.0000   1.0000   1.0000   1.0000   1.0000
     1.0000   1.0000   1.0000   1.0000   0.0000   0.0000   0.0000   0.0000
     0.0000   0.0000   0.0000   0.0000

          k = 0.0000-0.3143 0.5971 ( 15384 PWs)   bands (ev):

   -13.2823 -13.2823 -13.2754 -13.2754 -13.1366 -13.1366 -13.0758 -13.0758
   -13.0750 -13.0750 -13.0410 -13.0410 -13.0221 -13.0221 -12.9907 -12.9907
   -12.8533 -12.8533 -12.8468 -12.8468   0.5725   0.5725   1.7554   1.7554
     5.4659   5.4659   6.0779   6.0779  11.1147  11.1147  11.4602  11.4602
    12.1347  12.1347  13.5448  13.5448

     occupation numbers 
     1.0000   1.0000   1.0000   1.0000   1.0000   1.0000   1.0000   1.0000
     1.0000   1.0000   1.0000   1.0000   1.0000   1.0000   1.0000   1.0000
     1.0000   1.0000   1.0000   1.0000   1.0000   1.0000   1.0000   1.0000
     1.0000   1.0000   1.0000   1.0000   0.0000   0.0000   0.0000   0.0000
     0.0000   0.0000   0.0000   0.0000

          k =-0.0786-0.4243 0.7071 ( 15377 PWs)   bands (ev):

   -13.2810 -13.2810 -13.2769 -13.2769 -13.1331 -13.1331 -13.0893 -13.0893
   -13.0678 -13.0678 -13.0308 -13.0308 -13.0269 -13.0269 -12.9935 -12.9935
   -12.8518 -12.8518 -12.8480 -12.8480   0.7029   0.7029   1.6123   1.6123
     5.5541   5.5541   5.9373   5.9373  11.0963  11.0963  11.0991  11.0991
    12.3990  12.3990  13.6422  13.6422

     occupation numbers 
     1.0000   1.0000   1.0000   1.0000   1.0000   1.0000   1.0000   1.0000
     1.0000   1.0000   1.0000   1.0000   1.0000   1.0000   1.0000   1.0000
     1.0000   1.0000   1.0000   1.0000   1.0000   1.0000   1.0000   1.0000
     1.0000   1.0000   1.0000   1.0000   0.0000   0.0000   0.0000   0.0000
     0.0000   0.0000   0.0000   0.0000

          k =-0.0629-0.4086 0.6914 ( 15369 PWs)   bands (ev):

   -13.2818 -13.2818 -13.2777 -13.2777 -13.1275 -13.1275 -13.0914 -13.0914
   -13.0640 -13.0640 -13.0324 -13.0324 -13.0281 -13.0281 -12.9980 -12.9980
   -12.8510 -12.8510 -12.8471 -12.8471   0.7986   0.7986   1.5128   1.5128
     5.5382   5.5382   5.8861   5.8861  11.1158  11.1158  11.3657  11.3657
    12.3630  12.3630  13.3260  13.3260

     occupation numbers 
     1.0000   1.0000   1.0000   1.0000   1.0000   1.0000   1.0000   1.0000
     1.0000   1.0000   1.0000   1.0000   1.0000   1.0000   1.0000   1.0000
     1.0000   1.0000   1.0000   1.0000   1.0000   1.0000   1.0000   1.0000
     1.0000   1.0000   1.0000   1.0000   0.0000   0.0000   0.0000   0.0000
     0.0000   0.0000   0.0000   0.0000

          k =-0.0471-0.3928 0.6757 ( 15376 PWs)   bands (ev):

   -13.2825 -13.2825 -13.2780 -13.2780 -13.1237 -13.1237 -13.0921 -13.0921
   -13.0609 -13.0609 -13.0367 -13.0367 -13.0270 -13.0270 -13.0009 -13.0009
   -12.8506 -12.8506 -12.8463 -12.8463   0.8682   0.8682   1.4416   1.4416
     5.5191   5.5191   5.8626   5.8626  11.1362  11.1362  11.6142  11.6142
    12.3575  12.3575  13.0168  13.0168

     occupation numbers 
     1.0000   1.0000   1.0000   1.0000   1.0000   1.0000   1.0000   1.0000
     1.0000   1.0000   1.0000   1.0000   1.0000   1.0000   1.0000   1.0000
     1.0000   1.0000   1.0000   1.0000   1.0000   1.0000   1.0000   1.0000
     1.0000   1.0000   1.0000   1.0000   0.0000   0.0000   0.0000   0.0000
     0.0000   0.0000   0.0000   0.0000

          k =-0.0314-0.3771 0.6600 ( 15376 PWs)   bands (ev):

   -13.2830 -13.2830 -13.2780 -13.2780 -13.1225 -13.1225 -13.0909 -13.0909
   -13.0600 -13.0600 -13.0386 -13.0386 -13.0278 -13.0278 -13.0017 -13.0017
   -12.8506 -12.8506 -12.8457 -12.8457   0.8878   0.8878   1.4224   1.4224
     5.4966   5.4966   5.8685   5.8685  11.1564  11.1564  11.7951  11.7951
    12.4039  12.4039  12.7492  12.7492

     occupation numbers 
     1.0000   1.0000   1.0000   1.0000   1.0000   1.0000   1.0000   1.0000
     1.0000   1.0000   1.0000   1.0000   1.0000   1.0000   1.0000   1.0000
     1.0000   1.0000   1.0000   1.0000   1.0000   1.0000   1.0000   1.0000
     1.0000   1.0000   1.0000   1.0000   0.0000   0.0000   0.0000   0.0000
     0.0000   0.0000   0.0000   0.0000

          k =-0.0157-0.3614 0.6443 ( 15369 PWs)   bands (ev):

   -13.2833 -13.2833 -13.2776 -13.2776 -13.1240 -13.1240 -13.0877 -13.0877
   -13.0621 -13.0621 -13.0369 -13.0369 -13.0303 -13.0303 -13.0004 -13.0004
   -12.8510 -12.8510 -12.8455 -12.8455   0.8475   0.8475   1.4647   1.4647
     5.4749   5.4749   5.9000   5.9000  11.1720  11.1720  11.8488  11.8488
    12.3800  12.3800  12.7108  12.7108

     occupation numbers 
     1.0000   1.0000   1.0000   1.0000   1.0000   1.0000   1.0000   1.0000
     1.0000   1.0000   1.0000   1.0000   1.0000   1.0000   1.0000   1.0000
     1.0000   1.0000   1.0000   1.0000   1.0000   1.0000   1.0000   1.0000
     1.0000   1.0000   1.0000   1.0000   0.0000   0.0000   0.0000   0.0000
     0.0000   0.0000   0.0000   0.0000

          k =-0.0000-0.3457 0.6285 ( 15378 PWs)   bands (ev):

   -13.2833 -13.2833 -13.2770 -13.2770 -13.1274 -13.1274 -13.0836 -13.0836
   -13.0661 -13.0661 -13.0341 -13.0341 -13.0326 -13.0326 -12.9977 -12.9977
   -12.8516 -12.8516 -12.8456 -12.8456   0.7671   0.7671   1.5487   1.5487
     5.4594   5.4594   5.9520   5.9520  11.1738  11.1738  11.7694  11.7694
    12.2562  12.2562  12.9455  12.9455

     occupation numbers 
     1.0000   1.0000   1.0000   1.0000   1.0000   1.0000   1.0000   1.0000
     1.0000   1.0000   1.0000   1.0000   1.0000   1.0000   1.0000   1.0000
     1.0000   1.0000   1.0000   1.0000   1.0000   1.0000   1.0000   1.0000
     1.0000   1.0000   1.0000   1.0000   0.0000   0.0000   0.0000   0.0000
     0.0000   0.0000   0.0000   0.0000

          k =-0.0471-0.4243 0.7071 ( 15374 PWs)   bands (ev):

   -13.2808 -13.2808 -13.2783 -13.2783 -13.1251 -13.1251 -13.0988 -13.0988
   -13.0597 -13.0597 -13.0350 -13.0350 -13.0226 -13.0226 -13.0001 -13.0001
   -12.8503 -12.8503 -12.8479 -12.8479   0.8792   0.8792   1.4260   1.4260
     5.5947   5.5947   5.8251   5.8251  11.0954  11.0954  11.1054  11.1054
    12.6092  12.6092  13.3758  13.3758

     occupation numbers 
     1.0000   1.0000   1.0000   1.0000   1.0000   1.0000   1.0000   1.0000
     1.0000   1.0000   1.0000   1.0000   1.0000   1.0000   1.0000   1.0000
     1.0000   1.0000   1.0000   1.0000   1.0000   1.0000   1.0000   1.0000
     1.0000   1.0000   1.0000   1.0000   0.0000   0.0000   0.0000   0.0000
     0.0000   0.0000   0.0000   0.0000

          k =-0.0314-0.4086 0.6914 ( 15377 PWs)   bands (ev):

   -13.2815 -13.2815 -13.2789 -13.2789 -13.1198 -13.1198 -13.1002 -13.1002
   -13.0563 -13.0563 -13.0398 -13.0398 -13.0210 -13.0210 -13.0043 -13.0043
   -12.8497 -12.8497 -12.8472 -12.8472   0.9653   0.9653   1.3399   1.3399
     5.5839   5.5839   5.7859   5.7859  11.1240  11.1240  11.3786  11.3786
    12.5643  12.5643  13.0583  13.0583

     occupation numbers 
     1.0000   1.0000   1.0000   1.0000   1.0000   1.0000   1.0000   1.0000
     1.0000   1.0000   1.0000   1.0000   1.0000   1.0000   1.0000   1.0000
     1.0000   1.0000   1.0000   1.0000   1.0000   1.0000   1.0000   1.0000
     1.0000   1.0000   1.0000   1.0000   0.0000   0.0000   0.0000   0.0000
     0.0000   0.0000   0.0000   0.0000

          k =-0.0157-0.3928 0.6757 ( 15376 PWs)   bands (ev):

   -13.2822 -13.2822 -13.2789 -13.2789 -13.1181 -13.1181 -13.0985 -13.0985
   -13.0550 -13.0550 -13.0423 -13.0423 -13.0222 -13.0222 -13.0055 -13.0055
   -12.8497 -12.8497 -12.8464 -12.8464   0.9935   0.9935   1.3131   1.3131
     5.5510   5.5510   5.7941   5.7941  11.1478  11.1478  11.6429  11.6429
    12.5371  12.5371  12.7639  12.7639

     occupation numbers 
     1.0000   1.0000   1.0000   1.0000   1.0000   1.0000   1.0000   1.0000
     1.0000   1.0000   1.0000   1.0000   1.0000   1.0000   1.0000   1.0000
     1.0000   1.0000   1.0000   1.0000   1.0000   1.0000   1.0000   1.0000
     1.0000   1.0000   1.0000   1.0000   0.0000   0.0000   0.0000   0.0000
     0.0000   0.0000   0.0000   0.0000

          k =-0.0000-0.3771 0.6600 ( 15376 PWs)   bands (ev):

   -13.2829 -13.2829 -13.2784 -13.2784 -13.1201 -13.1201 -13.0937 -13.0937
   -13.0576 -13.0576 -13.0406 -13.0406 -13.0259 -13.0259 -13.0036 -13.0036
   -12.8502 -12.8502 -12.8458 -12.8458   0.9404   0.9404   1.3687   1.3687
     5.5099   5.5099   5.8367   5.8367  11.1673  11.1673  11.8370  11.8370
    12.4889  12.4889  12.5940  12.5940

     occupation numbers 
     1.0000   1.0000   1.0000   1.0000   1.0000   1.0000   1.0000   1.0000
     1.0000   1.0000   1.0000   1.0000   1.0000   1.0000   1.0000   1.0000
     1.0000   1.0000   1.0000   1.0000   1.0000   1.0000   1.0000   1.0000
     1.0000   1.0000   1.0000   1.0000   0.0000   0.0000   0.0000   0.0000
     0.0000   0.0000   0.0000   0.0000

          k =-0.0157-0.4243 0.7071 ( 15381 PWs)   bands (ev):

   -13.2803 -13.2803 -13.2795 -13.2795 -13.1167 -13.1167 -13.1079 -13.1079
   -13.0515 -13.0515 -13.0433 -13.0433 -13.0148 -13.0148 -13.0072 -13.0072
   -12.8491 -12.8491 -12.8483 -12.8483   1.0589   1.0589   1.2413   1.2413
     5.6535   5.6535   5.7304   5.7304  11.0976  11.0976  11.1028  11.1028
    12.8493  12.8493  13.1079  13.1079

     occupation numbers 
     1.0000   1.0000   1.0000   1.0000   1.0000   1.0000   1.0000   1.0000
     1.0000   1.0000   1.0000   1.0000   1.0000   1.0000   1.0000   1.0000
     1.0000   1.0000   1.0000   1.0000   1.0000   1.0000   1.0000   1.0000
     1.0000   1.0000   1.0000   1.0000   0.0000   0.0000   0.0000   0.0000
     0.0000   0.0000   0.0000   0.0000

          k = 0.0000-0.4086 0.6914 ( 15376 PWs)   bands (ev):

   -13.2812 -13.2812 -13.2795 -13.2795 -13.1145 -13.1145 -13.1059 -13.1059
   -13.0503 -13.0503 -13.0457 -13.0457 -13.0163 -13.0163 -13.0087 -13.0087
   -12.8491 -12.8491 -12.8474 -12.8474   1.0873   1.0873   1.2159   1.2159
     5.6168   5.6168   5.7348   5.7348  11.1257  11.1257  11.3825  11.3825
    12.8006  12.8006  12.8006  12.8007

     occupation numbers 
     1.0000   1.0000   1.0000   1.0000   1.0000   1.0000   1.0000   1.0000
     1.0000   1.0000   1.0000   1.0000   1.0000   1.0000   1.0000   1.0000
     1.0000   1.0000   1.0000   1.0000   1.0000   1.0000   1.0000   1.0000
     1.0000   1.0000   1.0000   1.0000   0.0000   0.0000   0.0000   0.0000
     0.0000   0.0000   0.0000   0.0000

          k =-0.0786-0.3928 0.7071 ( 15362 PWs)   bands (ev):

   -13.2823 -13.2823 -13.2772 -13.2772 -13.1292 -13.1292 -13.0855 -13.0855
   -13.0675 -13.0675 -13.0330 -13.0330 -13.0296 -13.0296 -12.9965 -12.9965
   -12.8515 -12.8515 -12.8466 -12.8466   0.7347   0.7347   1.5820   1.5820
     5.4986   5.4986   5.9381   5.9381  11.2472  11.2472  11.4407  11.4407
    12.2009  12.2009  13.2801  13.2801

     occupation numbers 
     1.0000   1.0000   1.0000   1.0000   1.0000   1.0000   1.0000   1.0000
     1.0000   1.0000   1.0000   1.0000   1.0000   1.0000   1.0000   1.0000
     1.0000   1.0000   1.0000   1.0000   1.0000   1.0000   1.0000   1.0000
     1.0000   1.0000   1.0000   1.0000   0.0000   0.0000   0.0000   0.0000
     0.0000   0.0000   0.0000   0.0000

          k =-0.0629-0.3771 0.6914 ( 15374 PWs)   bands (ev):

   -13.2827 -13.2827 -13.2779 -13.2779 -13.1246 -13.1246 -13.0885 -13.0885
   -13.0636 -13.0636 -13.0349 -13.0349 -13.0297 -13.0297 -13.0001 -13.0001
   -12.8507 -12.8507 -12.8461 -12.8461   0.8234   0.8234   1.4899   1.4899
     5.4984   5.4984   5.8859   5.8859  11.2873  11.2873  11.6165  11.6165
    12.2381  12.2381  12.9756  12.9757

     occupation numbers 
     1.0000   1.0000   1.0000   1.0000   1.0000   1.0000   1.0000   1.0000
     1.0000   1.0000   1.0000   1.0000   1.0000   1.0000   1.0000   1.0000
     1.0000   1.0000   1.0000   1.0000   1.0000   1.0000   1.0000   1.0000
     1.0000   1.0000   1.0000   1.0000   0.0000   0.0000   0.0000   0.0000
     0.0000   0.0000   0.0000   0.0000

          k =-0.0471-0.3614 0.6757 ( 15375 PWs)   bands (ev):

   -13.2829 -13.2829 -13.2782 -13.2782 -13.1220 -13.1220 -13.0903 -13.0903
   -13.0609 -13.0609 -13.0382 -13.0382 -13.0280 -13.0280 -13.0021 -13.0021
   -12.8504 -12.8504 -12.8458 -12.8458   0.8792   0.8792   1.4323   1.4323
     5.5000   5.5000   5.8578   5.8578  11.2971  11.2971  11.7287  11.7287
    12.3438  12.3438  12.7209  12.7209

     occupation numbers 
     1.0000   1.0000   1.0000   1.0000   1.0000   1.0000   1.0000   1.0000
     1.0000   1.0000   1.0000   1.0000   1.0000   1.0000   1.0000   1.0000
     1.0000   1.0000   1.0000   1.0000   1.0000   1.0000   1.0000   1.0000
     1.0000   1.0000   1.0000   1.0000   0.0000   0.0000   0.0000   0.0000
     0.0000   0.0000   0.0000   0.0000

          k =-0.0471-0.3928 0.7071 ( 15375 PWs)   bands (ev):

   -13.2819 -13.2819 -13.2788 -13.2788 -13.1213 -13.1213 -13.0950 -13.0950
   -13.0600 -13.0600 -13.0372 -13.0372 -13.0250 -13.0250 -13.0029 -13.0029
   -12.8498 -12.8498 -12.8468 -12.8468   0.9001   0.9001   1.4095   1.4095
     5.5499   5.5499   5.8144   5.8144  11.3343  11.3343  11.4250  11.4250
    12.3332  12.3332  13.0122  13.0123

     occupation numbers 
     1.0000   1.0000   1.0000   1.0000   1.0000   1.0000   1.0000   1.0000
     1.0000   1.0000   1.0000   1.0000   1.0000   1.0000   1.0000   1.0000
     1.0000   1.0000   1.0000   1.0000   1.0000   1.0000   1.0000   1.0000
     1.0000   1.0000   1.0000   1.0000   0.0000   0.0000   0.0000   0.0000
     0.0000   0.0000   0.0000   0.0000

          k =-0.0314-0.3771 0.6914 ( 15380 PWs)   bands (ev):

   -13.2821 -13.2821 -13.2794 -13.2794 -13.1170 -13.1170 -13.0973 -13.0973
   -13.0567 -13.0567 -13.0413 -13.0413 -13.0228 -13.0228 -13.0063 -13.0063
   -12.8492 -12.8492 -12.8465 -12.8465   0.9766   0.9766   1.3325   1.3325
     5.5568   5.5568   5.7730   5.7730  11.3768  11.3768  11.6260  11.6260
    12.3370  12.3370  12.7248  12.7248

     occupation numbers 
     1.0000   1.0000   1.0000   1.0000   1.0000   1.0000   1.0000   1.0000
     1.0000   1.0000   1.0000   1.0000   1.0000   1.0000   1.0000   1.0000
     1.0000   1.0000   1.0000   1.0000   1.0000   1.0000   1.0000   1.0000
     1.0000   1.0000   1.0000   1.0000   0.0000   0.0000   0.0000   0.0000
     0.0000   0.0000   0.0000   0.0000

          k =-0.0157-0.3614 0.6757 ( 15376 PWs)   bands (ev):

   -13.2824 -13.2824 -13.2793 -13.2793 -13.1164 -13.1164 -13.0967 -13.0967
   -13.0562 -13.0562 -13.0422 -13.0422 -13.0232 -13.0232 -13.0067 -13.0067
   -12.8493 -12.8493 -12.8462 -12.8462   0.9861   0.9861   1.3234   1.3234
     5.5456   5.5456   5.7757   5.7757  11.3856  11.3856  11.7527  11.7527
    12.3610  12.3610  12.5541  12.5541

     occupation numbers 
     1.0000   1.0000   1.0000   1.0000   1.0000   1.0000   1.0000   1.0000
     1.0000   1.0000   1.0000   1.0000   1.0000   1.0000   1.0000   1.0000
     1.0000   1.0000   1.0000   1.0000   1.0000   1.0000   1.0000   1.0000
     1.0000   1.0000   1.0000   1.0000   0.0000   0.0000   0.0000   0.0000
     0.0000   0.0000   0.0000   0.0000

          k = 0.0000-0.3457 0.6600 ( 15372 PWs)   bands (ev):

   -13.2826 -13.2826 -13.2788 -13.2788 -13.1195 -13.1195 -13.0931 -13.0931
   -13.0593 -13.0593 -13.0392 -13.0392 -13.0262 -13.0262 -13.0041 -13.0041
   -12.8498 -12.8498 -12.8461 -12.8461   0.9207   0.9207   1.3903   1.3903
     5.5213   5.5213   5.8183   5.8183  11.3698  11.3698  11.7216  11.7216
    12.2783  12.2783  12.7017  12.7018

     occupation numbers 
     1.0000   1.0000   1.0000   1.0000   1.0000   1.0000   1.0000   1.0000
     1.0000   1.0000   1.0000   1.0000   1.0000   1.0000   1.0000   1.0000
     1.0000   1.0000   1.0000   1.0000   1.0000   1.0000   1.0000   1.0000
     1.0000   1.0000   1.0000   1.0000   0.0000   0.0000   0.0000   0.0000
     0.0000   0.0000   0.0000   0.0000

          k =-0.0157-0.3928 0.7071 ( 15379 PWs)   bands (ev):

   -13.2812 -13.2812 -13.2801 -13.2801 -13.1130 -13.1130 -13.1042 -13.1042
   -13.0524 -13.0524 -13.0447 -13.0447 -13.0173 -13.0173 -13.0099 -13.0099
   -12.8484 -12.8484 -12.8474 -12.8474   1.0681   1.0681   1.2381   1.2381
     5.6198   5.6198   5.7081   5.7081  11.3826  11.3826  11.4083  11.4083
    12.5241  12.5241  12.7558  12.7558

     occupation numbers 
     1.0000   1.0000   1.0000   1.0000   1.0000   1.0000   1.0000   1.0000
     1.0000   1.0000   1.0000   1.0000   1.0000   1.0000   1.0000   1.0000
     1.0000   1.0000   1.0000   1.0000   1.0000   1.0000   1.0000   1.0000
     1.0000   1.0000   1.0000   1.0000   0.0000   0.0000   0.0000   0.0000
     0.0000   0.0000   0.0000   0.0000

          k =-0.0000-0.3771 0.6914 ( 15373 PWs)   bands (ev):

   -13.2817 -13.2817 -13.2801 -13.2801 -13.1118 -13.1118 -13.1030 -13.1030
   -13.0518 -13.0518 -13.0461 -13.0461 -13.0181 -13.0181 -13.0106 -13.0106
   -12.8484 -12.8484 -12.8470 -12.8470   1.0824   1.0824   1.2253   1.2253
     5.6011   5.6011   5.7104   5.7104  11.4039  11.4039  11.6332  11.6332
    12.4900  12.4900  12.5195  12.5195

     occupation numbers 
     1.0000   1.0000   1.0000   1.0000   1.0000   1.0000   1.0000   1.0000
     1.0000   1.0000   1.0000   1.0000   1.0000   1.0000   1.0000   1.0000
     1.0000   1.0000   1.0000   1.0000   1.0000   1.0000   1.0000   1.0000
     1.0000   1.0000   1.0000   1.0000   0.0000   0.0000   0.0000   0.0000
     0.0000   0.0000   0.0000   0.0000

          k =-0.0157-0.3614 0.7071 ( 15377 PWs)   bands (ev):

   -13.2816 -13.2816 -13.2804 -13.2804 -13.1112 -13.1112 -13.1024 -13.1024
   -13.0525 -13.0525 -13.0458 -13.0458 -13.0184 -13.0184 -13.0111 -13.0111
   -12.8482 -12.8482 -12.8470 -12.8470   1.0760   1.0760   1.2327   1.2327
     5.6021   5.6021   5.7013   5.7013  11.5332  11.5332  11.6489  11.6489
    12.3541  12.3541  12.4975  12.4975

     occupation numbers 
     1.0000   1.0000   1.0000   1.0000   1.0000   1.0000   1.0000   1.0000
     1.0000   1.0000   1.0000   1.0000   1.0000   1.0000   1.0000   1.0000
     1.0000   1.0000   1.0000   1.0000   1.0000   1.0000   1.0000   1.0000
     1.0000   1.0000   1.0000   1.0000   0.0000   0.0000   0.0000   0.0000
     0.0000   0.0000   0.0000   0.0000

     the Fermi energy is     8.3840 ev

!    total energy              =    -241.29885763 Ry
     Harris-Foulkes estimate   =    -241.29885761 Ry
     estimated scf accuracy    <       0.00000005 Ry

     The total energy is the sum of the following terms:

     one-electron contribution =    -109.12983462 Ry
     hartree contribution      =      65.22559977 Ry
     xc contribution           =     -29.41149966 Ry
     ewald contribution        =    -167.98312310 Ry
     smearing contrib. (-TS)   =      -0.00000001 Ry

     convergence has been achieved in   5 iterations

     Writing output data file Sn.save
