
     Program PWSCF v.5.4.0 starts on 16Mar2020 at 22:54:39 

     This program is part of the open-source Quantum ESPRESSO suite
     for quantum simulation of materials; please cite
         "P. Giannozzi et al., J. Phys.:Condens. Matter 21 395502 (2009);
          URL http://www.quantum-espresso.org", 
     in publications or presentations arising from this work. More details at
     http://www.quantum-espresso.org/quote

     Parallel version (MPI & OpenMP), running on      16 processor cores
     Number of MPI processes:                16
     Threads/MPI process:                     1
     R & G space division:  proc/nbgrp/npool/nimage =      16
     Waiting for input...
     Reading input from standard input
Warning: card &IONS ignored
Warning: card / ignored
Warning: card &CELL ignored
Warning: card / ignored

     Current dimensions of program PWSCF are:
     Max number of different atomic species (ntypx) = 10
     Max number of k-points (npk) =  40000
     Max angular momentum in pseudopotentials (lmaxx) =  3
               file Sn.pbe-dn-kjpaw_psl.1.0.0.UPF: wavefunction(s)  5S 5P 4D renormalized
     Message from routine setup:
     At least one non s.o. pseudo

     Subspace diagonalization in iterative solution of the eigenvalue problem:
     a serial algorithm will be used

 
     Parallelization info
     --------------------
     sticks:   dense  smooth     PW     G-vecs:    dense   smooth      PW
     Min         122     122     34                 3603     3603     547
     Max         125     125     35                 3604     3604     551
     Sum        1969    1969    559                57655    57655    8801
 

     Title: 
     Sn                                                                         


     bravais-lattice index     =            0
     lattice parameter (alat)  =       8.9127  a.u.
     unit-cell volume          =     500.6268 (a.u.)^3
     number of atoms/cell      =            2
     number of atomic types    =            1
     number of electrons       =        28.00
     number of Kohn-Sham states=           36
     kinetic-energy cutoff     =      90.0000  Ry
     charge density cutoff     =     360.0000  Ry
     convergence threshold     =      1.0E-06
     mixing beta               =       0.7000
     number of iterations used =            8  plain     mixing
     Exchange-correlation      =  SLA  PW   PBX  PBC ( 1  4  3  4 0 0)
     Non magnetic calculation with spin-orbit


     celldm(1)=   8.912709  celldm(2)=   0.000000  celldm(3)=   0.000000
     celldm(4)=   0.000000  celldm(5)=   0.000000  celldm(6)=   0.000000

     crystal axes: (cart. coord. in units of alat)
               a(1) = (   0.000000   0.707107   0.707107 )  
               a(2) = (   0.707107   0.000000   0.707107 )  
               a(3) = (   0.707107   0.707107   0.000000 )  

     reciprocal axes: (cart. coord. in units 2 pi/alat)
               b(1) = ( -0.707107  0.707107  0.707107 )  
               b(2) = (  0.707107 -0.707107  0.707107 )  
               b(3) = (  0.707107  0.707107 -0.707107 )  


     PseudoPot. # 1 for Sn read from file:
     ../PseudopotentialDatabase/Sn.pbe-dn-kjpaw_psl.1.0.0.UPF
     MD5 check sum: 67f11dec737d427557dc41ea34975807
     Pseudo is Projector augmented-wave + core cor, Zval = 14.0
     Generated using "atomic" code by A. Dal Corso  v.6.3
     Shape of augmentation charge: PSQ
     Using radial grid of 1243 points,  6 beta functions with: 
                l(1) =   0
                l(2) =   0
                l(3) =   1
                l(4) =   1
                l(5) =   2
                l(6) =   2
     Q(r) pseudized with 0 coefficients 


     atomic species   valence    mass     pseudopotential
        Sn            14.00   118.71000     Sn( 1.00)

     24 Sym. Ops. (no inversion) found
          (note: 24 additional sym.ops. were found but ignored
           their fractional translations are incommensurate with FFT grid)

                                    s                        frac. trans.

      isym =  1     identity                                     

 cryst.   s( 1) = (     1          0          0      )
                  (     0          1          0      )
                  (     0          0          1      )

 cart.    s( 1) = (  1.0000000  0.0000000  0.0000000 )
                  (  0.0000000  1.0000000  0.0000000 )
                  (  0.0000000  0.0000000  1.0000000 )


      isym =  2     180 deg rotation - cart. axis [0,0,1]        

 cryst.   s( 2) = (     0          1         -1      )
                  (     1          0         -1      )
                  (     0          0         -1      )

 cart.    s( 2) = ( -1.0000000  0.0000000  0.0000000 )
                  (  0.0000000 -1.0000000  0.0000000 )
                  (  0.0000000  0.0000000  1.0000000 )


      isym =  3     180 deg rotation - cart. axis [0,1,0]        

 cryst.   s( 3) = (     0         -1          1      )
                  (     0         -1          0      )
                  (     1         -1          0      )

 cart.    s( 3) = ( -1.0000000  0.0000000  0.0000000 )
                  (  0.0000000  1.0000000  0.0000000 )
                  (  0.0000000  0.0000000 -1.0000000 )


      isym =  4     180 deg rotation - cart. axis [1,0,0]        

 cryst.   s( 4) = (    -1          0          0      )
                  (    -1          0          1      )
                  (    -1          1          0      )

 cart.    s( 4) = (  1.0000000  0.0000000  0.0000000 )
                  (  0.0000000 -1.0000000  0.0000000 )
                  (  0.0000000  0.0000000 -1.0000000 )


      isym =  5     120 deg rotation - cart. axis [-1,-1,-1]     

 cryst.   s( 5) = (     0          0          1      )
                  (     1          0          0      )
                  (     0          1          0      )

 cart.    s( 5) = (  0.0000000  1.0000000  0.0000000 )
                  (  0.0000000  0.0000000  1.0000000 )
                  (  1.0000000  0.0000000  0.0000000 )


      isym =  6     120 deg rotation - cart. axis [-1,1,1]       

 cryst.   s( 6) = (     1         -1          0      )
                  (     0         -1          1      )
                  (     0         -1          0      )

 cart.    s( 6) = (  0.0000000 -1.0000000  0.0000000 )
                  (  0.0000000  0.0000000  1.0000000 )
                  ( -1.0000000  0.0000000  0.0000000 )


      isym =  7     120 deg rotation - cart. axis [1,1,-1]       

 cryst.   s( 7) = (    -1          1          0      )
                  (    -1          0          0      )
                  (    -1          0          1      )

 cart.    s( 7) = (  0.0000000  1.0000000  0.0000000 )
                  (  0.0000000  0.0000000 -1.0000000 )
                  ( -1.0000000  0.0000000  0.0000000 )


      isym =  8     120 deg rotation - cart. axis [1,-1,1]       

 cryst.   s( 8) = (     0          0         -1      )
                  (     0          1         -1      )
                  (     1          0         -1      )

 cart.    s( 8) = (  0.0000000 -1.0000000  0.0000000 )
                  (  0.0000000  0.0000000 -1.0000000 )
                  (  1.0000000  0.0000000  0.0000000 )


      isym =  9     120 deg rotation - cart. axis [1,1,1]        

 cryst.   s( 9) = (     0          1          0      )
                  (     0          0          1      )
                  (     1          0          0      )

 cart.    s( 9) = (  0.0000000  0.0000000  1.0000000 )
                  (  1.0000000  0.0000000  0.0000000 )
                  (  0.0000000  1.0000000  0.0000000 )


      isym = 10     120 deg rotation - cart. axis [-1,1,-1]      

 cryst.   s(10) = (    -1          0          1      )
                  (    -1          1          0      )
                  (    -1          0          0      )

 cart.    s(10) = (  0.0000000  0.0000000  1.0000000 )
                  ( -1.0000000  0.0000000  0.0000000 )
                  (  0.0000000 -1.0000000  0.0000000 )


      isym = 11     120 deg rotation - cart. axis [1,-1,-1]      

 cryst.   s(11) = (     1          0         -1      )
                  (     0          0         -1      )
                  (     0          1         -1      )

 cart.    s(11) = (  0.0000000  0.0000000 -1.0000000 )
                  ( -1.0000000  0.0000000  0.0000000 )
                  (  0.0000000  1.0000000  0.0000000 )


      isym = 12     120 deg rotation - cart. axis [-1,-1,1]      

 cryst.   s(12) = (     0         -1          0      )
                  (     1         -1          0      )
                  (     0         -1          1      )

 cart.    s(12) = (  0.0000000  0.0000000 -1.0000000 )
                  (  1.0000000  0.0000000  0.0000000 )
                  (  0.0000000 -1.0000000  0.0000000 )


      isym = 13     inv. 180 deg rotation - cart. axis [1,1,0]   

 cryst.   s(13) = (     1          0         -1      )
                  (     0          1         -1      )
                  (     0          0         -1      )

 cart.    s(13) = (  0.0000000 -1.0000000  0.0000000 )
                  ( -1.0000000  0.0000000  0.0000000 )
                  (  0.0000000  0.0000000  1.0000000 )


      isym = 14     inv. 180 deg rotation - cart. axis [1,-1,0]  

 cryst.   s(14) = (     0          1          0      )
                  (     1          0          0      )
                  (     0          0          1      )

 cart.    s(14) = (  0.0000000  1.0000000  0.0000000 )
                  (  1.0000000  0.0000000  0.0000000 )
                  (  0.0000000  0.0000000  1.0000000 )


      isym = 15     inv.  90 deg rotation - cart. axis [0,0,-1]  

 cryst.   s(15) = (     0         -1          0      )
                  (     0         -1          1      )
                  (     1         -1          0      )

 cart.    s(15) = (  0.0000000 -1.0000000  0.0000000 )
                  (  1.0000000  0.0000000  0.0000000 )
                  (  0.0000000  0.0000000 -1.0000000 )


      isym = 16     inv.  90 deg rotation - cart. axis [0,0,1]   

 cryst.   s(16) = (    -1          0          1      )
                  (    -1          0          0      )
                  (    -1          1          0      )

 cart.    s(16) = (  0.0000000  1.0000000  0.0000000 )
                  ( -1.0000000  0.0000000  0.0000000 )
                  (  0.0000000  0.0000000 -1.0000000 )


      isym = 17     inv. 180 deg rotation - cart. axis [1,0,1]   

 cryst.   s(17) = (     1         -1          0      )
                  (     0         -1          0      )
                  (     0         -1          1      )

 cart.    s(17) = (  0.0000000  0.0000000 -1.0000000 )
                  (  0.0000000  1.0000000  0.0000000 )
                  ( -1.0000000  0.0000000  0.0000000 )


      isym = 18     inv. 180 deg rotation - cart. axis [-1,0,1]  

 cryst.   s(18) = (     0          0          1      )
                  (     0          1          0      )
                  (     1          0          0      )

 cart.    s(18) = (  0.0000000  0.0000000  1.0000000 )
                  (  0.0000000  1.0000000  0.0000000 )
                  (  1.0000000  0.0000000  0.0000000 )


      isym = 19     inv.  90 deg rotation - cart. axis [0,1,0]   

 cryst.   s(19) = (     0          0         -1      )
                  (     1          0         -1      )
                  (     0          1         -1      )

 cart.    s(19) = (  0.0000000  0.0000000 -1.0000000 )
                  (  0.0000000 -1.0000000  0.0000000 )
                  (  1.0000000  0.0000000  0.0000000 )


      isym = 20     inv.  90 deg rotation - cart. axis [0,-1,0]  

 cryst.   s(20) = (    -1          1          0      )
                  (    -1          0          1      )
                  (    -1          0          0      )

 cart.    s(20) = (  0.0000000  0.0000000  1.0000000 )
                  (  0.0000000 -1.0000000  0.0000000 )
                  ( -1.0000000  0.0000000  0.0000000 )


      isym = 21     inv. 180 deg rotation - cart. axis [0,1,1]   

 cryst.   s(21) = (    -1          0          0      )
                  (    -1          1          0      )
                  (    -1          0          1      )

 cart.    s(21) = (  1.0000000  0.0000000  0.0000000 )
                  (  0.0000000  0.0000000 -1.0000000 )
                  (  0.0000000 -1.0000000  0.0000000 )


      isym = 22     inv. 180 deg rotation - cart. axis [0,1,-1]  

 cryst.   s(22) = (     1          0          0      )
                  (     0          0          1      )
                  (     0          1          0      )

 cart.    s(22) = (  1.0000000  0.0000000  0.0000000 )
                  (  0.0000000  0.0000000  1.0000000 )
                  (  0.0000000  1.0000000  0.0000000 )


      isym = 23     inv.  90 deg rotation - cart. axis [-1,0,0]  

 cryst.   s(23) = (     0          1         -1      )
                  (     0          0         -1      )
                  (     1          0         -1      )

 cart.    s(23) = ( -1.0000000  0.0000000  0.0000000 )
                  (  0.0000000  0.0000000 -1.0000000 )
                  (  0.0000000  1.0000000  0.0000000 )


      isym = 24     inv.  90 deg rotation - cart. axis [1,0,0]   

 cryst.   s(24) = (     0         -1          1      )
                  (     1         -1          0      )
                  (     0         -1          0      )

 cart.    s(24) = ( -1.0000000  0.0000000  0.0000000 )
                  (  0.0000000  0.0000000  1.0000000 )
                  (  0.0000000 -1.0000000  0.0000000 )


   Cartesian axes

     site n.     atom                  positions (alat units)
         1           Sn  tau(   1) = (   0.0000000   0.0000000   0.0000000  )
         2           Sn  tau(   2) = (   0.3535534   0.3535534   0.3535534  )

   Crystallographic axes

     site n.     atom                  positions (cryst. coord.)
         1           Sn  tau(   1) = (  0.0000000  0.0000000  0.0000000  )
         2           Sn  tau(   2) = (  0.2500000  0.2500000  0.2500000  )

     number of k points=   145  gaussian smearing, width (Ry)=  0.0001
                       cart. coord. in units 2pi/alat
        k(    1) = (   0.0000000   0.0000000   0.0000000), wk =   0.0002441
        k(    2) = (   0.0441942   0.0441942  -0.0441942), wk =   0.0019531
        k(    3) = (   0.0883883   0.0883883  -0.0883883), wk =   0.0019531
        k(    4) = (   0.1325825   0.1325825  -0.1325825), wk =   0.0019531
        k(    5) = (   0.1767767   0.1767767  -0.1767767), wk =   0.0019531
        k(    6) = (   0.2209709   0.2209709  -0.2209709), wk =   0.0019531
        k(    7) = (   0.2651650   0.2651650  -0.2651650), wk =   0.0019531
        k(    8) = (   0.3093592   0.3093592  -0.3093592), wk =   0.0019531
        k(    9) = (  -0.3535534  -0.3535534   0.3535534), wk =   0.0009766
        k(   10) = (   0.0883883   0.0000000   0.0000000), wk =   0.0014648
        k(   11) = (   0.1325825   0.0441942  -0.0441942), wk =   0.0058594
        k(   12) = (   0.1767767   0.0883883  -0.0883883), wk =   0.0058594
        k(   13) = (   0.2209709   0.1325825  -0.1325825), wk =   0.0058594
        k(   14) = (   0.2651650   0.1767767  -0.1767767), wk =   0.0058594
        k(   15) = (   0.3093592   0.2209709  -0.2209709), wk =   0.0058594
        k(   16) = (   0.3535534   0.2651650  -0.2651650), wk =   0.0058594
        k(   17) = (  -0.3093592  -0.3977476   0.3977476), wk =   0.0058594
        k(   18) = (  -0.2651650  -0.3535534   0.3535534), wk =   0.0058594
        k(   19) = (  -0.2209709  -0.3093592   0.3093592), wk =   0.0058594
        k(   20) = (  -0.1767767  -0.2651650   0.2651650), wk =   0.0058594
        k(   21) = (  -0.1325825  -0.2209709   0.2209709), wk =   0.0058594
        k(   22) = (  -0.0883883  -0.1767767   0.1767767), wk =   0.0058594
        k(   23) = (  -0.0441942  -0.1325825   0.1325825), wk =   0.0058594
        k(   24) = (   0.0000000  -0.0883883   0.0883883), wk =   0.0029297
        k(   25) = (   0.1767767   0.0000000   0.0000000), wk =   0.0014648
        k(   26) = (   0.2209709   0.0441942  -0.0441942), wk =   0.0058594
        k(   27) = (   0.2651650   0.0883883  -0.0883883), wk =   0.0058594
        k(   28) = (   0.3093592   0.1325825  -0.1325825), wk =   0.0058594
        k(   29) = (   0.3535534   0.1767767  -0.1767767), wk =   0.0058594
        k(   30) = (   0.3977476   0.2209709  -0.2209709), wk =   0.0058594
        k(   31) = (  -0.2651650  -0.4419417   0.4419417), wk =   0.0058594
        k(   32) = (  -0.2209709  -0.3977476   0.3977476), wk =   0.0058594
        k(   33) = (  -0.1767767  -0.3535534   0.3535534), wk =   0.0058594
        k(   34) = (  -0.1325825  -0.3093592   0.3093592), wk =   0.0058594
        k(   35) = (  -0.0883883  -0.2651650   0.2651650), wk =   0.0058594
        k(   36) = (  -0.0441942  -0.2209709   0.2209709), wk =   0.0058594
        k(   37) = (   0.0000000  -0.1767767   0.1767767), wk =   0.0029297
        k(   38) = (   0.2651650   0.0000000   0.0000000), wk =   0.0014648
        k(   39) = (   0.3093592   0.0441942  -0.0441942), wk =   0.0058594
        k(   40) = (   0.3535534   0.0883883  -0.0883883), wk =   0.0058594
        k(   41) = (   0.3977476   0.1325825  -0.1325825), wk =   0.0058594
        k(   42) = (   0.4419417   0.1767767  -0.1767767), wk =   0.0058594
        k(   43) = (  -0.2209709  -0.4861359   0.4861359), wk =   0.0058594
        k(   44) = (  -0.1767767  -0.4419417   0.4419417), wk =   0.0058594
        k(   45) = (  -0.1325825  -0.3977476   0.3977476), wk =   0.0058594
        k(   46) = (  -0.0883883  -0.3535534   0.3535534), wk =   0.0058594
        k(   47) = (  -0.0441942  -0.3093592   0.3093592), wk =   0.0058594
        k(   48) = (   0.0000000  -0.2651650   0.2651650), wk =   0.0029297
        k(   49) = (   0.3535534   0.0000000   0.0000000), wk =   0.0014648
        k(   50) = (   0.3977476   0.0441942  -0.0441942), wk =   0.0058594
        k(   51) = (   0.4419417   0.0883883  -0.0883883), wk =   0.0058594
        k(   52) = (   0.4861359   0.1325825  -0.1325825), wk =   0.0058594
        k(   53) = (  -0.1767767  -0.5303301   0.5303301), wk =   0.0058594
        k(   54) = (  -0.1325825  -0.4861359   0.4861359), wk =   0.0058594
        k(   55) = (  -0.0883883  -0.4419417   0.4419417), wk =   0.0058594
        k(   56) = (  -0.0441942  -0.3977476   0.3977476), wk =   0.0058594
        k(   57) = (   0.0000000  -0.3535534   0.3535534), wk =   0.0029297
        k(   58) = (   0.4419417   0.0000000   0.0000000), wk =   0.0014648
        k(   59) = (   0.4861359   0.0441942  -0.0441942), wk =   0.0058594
        k(   60) = (   0.5303301   0.0883883  -0.0883883), wk =   0.0058594
        k(   61) = (  -0.1325825  -0.5745243   0.5745243), wk =   0.0058594
        k(   62) = (  -0.0883883  -0.5303301   0.5303301), wk =   0.0058594
        k(   63) = (  -0.0441942  -0.4861359   0.4861359), wk =   0.0058594
        k(   64) = (   0.0000000  -0.4419417   0.4419417), wk =   0.0029297
        k(   65) = (   0.5303301   0.0000000   0.0000000), wk =   0.0014648
        k(   66) = (   0.5745243   0.0441942  -0.0441942), wk =   0.0058594
        k(   67) = (  -0.0883883  -0.6187184   0.6187184), wk =   0.0058594
        k(   68) = (  -0.0441942  -0.5745243   0.5745243), wk =   0.0058594
        k(   69) = (   0.0000000  -0.5303301   0.5303301), wk =   0.0029297
        k(   70) = (   0.6187184   0.0000000   0.0000000), wk =   0.0014648
        k(   71) = (  -0.0441942  -0.6629126   0.6629126), wk =   0.0058594
        k(   72) = (   0.0000000  -0.6187184   0.6187184), wk =   0.0029297
        k(   73) = (  -0.7071068   0.0000000   0.0000000), wk =   0.0007324
        k(   74) = (   0.1767767   0.0883883   0.0000000), wk =   0.0058594
        k(   75) = (   0.2209709   0.1325825  -0.0441942), wk =   0.0117188
        k(   76) = (   0.2651650   0.1767767  -0.0883883), wk =   0.0117188
        k(   77) = (   0.3093592   0.2209709  -0.1325825), wk =   0.0117188
        k(   78) = (   0.3535534   0.2651650  -0.1767767), wk =   0.0117188
        k(   79) = (  -0.3093592  -0.3977476   0.4861359), wk =   0.0117188
        k(   80) = (  -0.2651650  -0.3535534   0.4419417), wk =   0.0058594
        k(   81) = (   0.2651650   0.0883883   0.0000000), wk =   0.0058594
        k(   82) = (   0.3093592   0.1325825  -0.0441942), wk =   0.0117188
        k(   83) = (   0.3535534   0.1767767  -0.0883883), wk =   0.0117188
        k(   84) = (   0.3977476   0.2209709  -0.1325825), wk =   0.0117188
        k(   85) = (  -0.2651650  -0.4419417   0.5303301), wk =   0.0117188
        k(   86) = (  -0.2209709  -0.3977476   0.4861359), wk =   0.0117188
        k(   87) = (  -0.1767767  -0.3535534   0.4419417), wk =   0.0117188
        k(   88) = (  -0.1325825  -0.3093592   0.3977476), wk =   0.0117188
        k(   89) = (  -0.0883883  -0.2651650   0.3535534), wk =   0.0117188
        k(   90) = (  -0.0441942  -0.2209709   0.3093592), wk =   0.0117188
        k(   91) = (   0.0000000  -0.1767767   0.2651650), wk =   0.0058594
        k(   92) = (   0.3535534   0.0883883   0.0000000), wk =   0.0058594
        k(   93) = (   0.3977476   0.1325825  -0.0441942), wk =   0.0117188
        k(   94) = (   0.4419417   0.1767767  -0.0883883), wk =   0.0117188
        k(   95) = (  -0.2209709  -0.4861359   0.5745243), wk =   0.0117188
        k(   96) = (  -0.1767767  -0.4419417   0.5303301), wk =   0.0117188
        k(   97) = (  -0.1325825  -0.3977476   0.4861359), wk =   0.0117188
        k(   98) = (  -0.0883883  -0.3535534   0.4419417), wk =   0.0117188
        k(   99) = (  -0.0441942  -0.3093592   0.3977476), wk =   0.0117188
        k(  100) = (   0.0000000  -0.2651650   0.3535534), wk =   0.0058594
        k(  101) = (   0.4419417   0.0883883   0.0000000), wk =   0.0058594
        k(  102) = (   0.4861359   0.1325825  -0.0441942), wk =   0.0117188
        k(  103) = (  -0.1767767  -0.5303301   0.6187184), wk =   0.0117188
        k(  104) = (  -0.1325825  -0.4861359   0.5745243), wk =   0.0117188
        k(  105) = (  -0.0883883  -0.4419417   0.5303301), wk =   0.0117188
        k(  106) = (  -0.0441942  -0.3977476   0.4861359), wk =   0.0117188
        k(  107) = (   0.0000000  -0.3535534   0.4419417), wk =   0.0058594
        k(  108) = (   0.5303301   0.0883883   0.0000000), wk =   0.0058594
        k(  109) = (  -0.1325825  -0.5745243   0.6629126), wk =   0.0117188
        k(  110) = (  -0.0883883  -0.5303301   0.6187184), wk =   0.0117188
        k(  111) = (  -0.0441942  -0.4861359   0.5745243), wk =   0.0117188
        k(  112) = (   0.0000000  -0.4419417   0.5303301), wk =   0.0058594
        k(  113) = (  -0.0883883  -0.6187184   0.7071068), wk =   0.0058594
        k(  114) = (  -0.0441942  -0.5745243   0.6629126), wk =   0.0117188
        k(  115) = (  -0.0000000  -0.5303301   0.6187184), wk =   0.0058594
        k(  116) = (  -0.7071068   0.0883883   0.0000000), wk =   0.0029297
        k(  117) = (   0.3535534   0.1767767   0.0000000), wk =   0.0058594
        k(  118) = (   0.3977476   0.2209709  -0.0441942), wk =   0.0117188
        k(  119) = (  -0.2651650  -0.4419417   0.6187184), wk =   0.0117188
        k(  120) = (  -0.2209709  -0.3977476   0.5745243), wk =   0.0117188
        k(  121) = (  -0.1767767  -0.3535534   0.5303301), wk =   0.0058594
        k(  122) = (   0.4419417   0.1767767   0.0000000), wk =   0.0058594
        k(  123) = (  -0.2209709  -0.4861359   0.6629126), wk =   0.0117188
        k(  124) = (  -0.1767767  -0.4419417   0.6187184), wk =   0.0117188
        k(  125) = (  -0.1325825  -0.3977476   0.5745243), wk =   0.0117188
        k(  126) = (  -0.0883883  -0.3535534   0.5303301), wk =   0.0117188
        k(  127) = (  -0.0441942  -0.3093592   0.4861359), wk =   0.0117188
        k(  128) = (   0.0000000  -0.2651650   0.4419417), wk =   0.0058594
        k(  129) = (  -0.1767767  -0.5303301   0.7071068), wk =   0.0058594
        k(  130) = (  -0.1325825  -0.4861359   0.6629126), wk =   0.0117188
        k(  131) = (  -0.0883883  -0.4419417   0.6187184), wk =   0.0117188
        k(  132) = (  -0.0441942  -0.3977476   0.5745243), wk =   0.0117188
        k(  133) = (   0.0000000  -0.3535534   0.5303301), wk =   0.0058594
        k(  134) = (  -0.0883883  -0.5303301   0.7071068), wk =   0.0058594
        k(  135) = (  -0.0441942  -0.4861359   0.6629126), wk =   0.0117188
        k(  136) = (   0.0000000  -0.4419417   0.6187184), wk =   0.0058594
        k(  137) = (  -0.7071068   0.1767767   0.0000000), wk =   0.0029297
        k(  138) = (  -0.1767767  -0.4419417   0.7071068), wk =   0.0058594
        k(  139) = (  -0.1325825  -0.3977476   0.6629126), wk =   0.0117188
        k(  140) = (  -0.0883883  -0.3535534   0.6187184), wk =   0.0058594
        k(  141) = (  -0.0883883  -0.4419417   0.7071068), wk =   0.0058594
        k(  142) = (  -0.0441942  -0.3977476   0.6629126), wk =   0.0117188
        k(  143) = (  -0.0000000  -0.3535534   0.6187184), wk =   0.0058594
        k(  144) = (  -0.7071068   0.2651650   0.0000000), wk =   0.0029297
        k(  145) = (  -0.7071068   0.3535534   0.0000000), wk =   0.0014648

                       cryst. coord.
        k(    1) = (   0.0000000   0.0000000   0.0000000), wk =   0.0002441
        k(    2) = (   0.0000000   0.0000000   0.0625000), wk =   0.0019531
        k(    3) = (   0.0000000   0.0000000   0.1250000), wk =   0.0019531
        k(    4) = (   0.0000000   0.0000000   0.1875000), wk =   0.0019531
        k(    5) = (   0.0000000   0.0000000   0.2500000), wk =   0.0019531
        k(    6) = (   0.0000000   0.0000000   0.3125000), wk =   0.0019531
        k(    7) = (   0.0000000   0.0000000   0.3750000), wk =   0.0019531
        k(    8) = (   0.0000000   0.0000000   0.4375000), wk =   0.0019531
        k(    9) = (   0.0000000   0.0000000  -0.5000000), wk =   0.0009766
        k(   10) = (   0.0000000   0.0625000   0.0625000), wk =   0.0014648
        k(   11) = (   0.0000000   0.0625000   0.1250000), wk =   0.0058594
        k(   12) = (   0.0000000   0.0625000   0.1875000), wk =   0.0058594
        k(   13) = (   0.0000000   0.0625000   0.2500000), wk =   0.0058594
        k(   14) = (   0.0000000   0.0625000   0.3125000), wk =   0.0058594
        k(   15) = (   0.0000000   0.0625000   0.3750000), wk =   0.0058594
        k(   16) = (   0.0000000   0.0625000   0.4375000), wk =   0.0058594
        k(   17) = (   0.0000000   0.0625000  -0.5000000), wk =   0.0058594
        k(   18) = (   0.0000000   0.0625000  -0.4375000), wk =   0.0058594
        k(   19) = (   0.0000000   0.0625000  -0.3750000), wk =   0.0058594
        k(   20) = (   0.0000000   0.0625000  -0.3125000), wk =   0.0058594
        k(   21) = (   0.0000000   0.0625000  -0.2500000), wk =   0.0058594
        k(   22) = (   0.0000000   0.0625000  -0.1875000), wk =   0.0058594
        k(   23) = (   0.0000000   0.0625000  -0.1250000), wk =   0.0058594
        k(   24) = (   0.0000000   0.0625000  -0.0625000), wk =   0.0029297
        k(   25) = (   0.0000000   0.1250000   0.1250000), wk =   0.0014648
        k(   26) = (   0.0000000   0.1250000   0.1875000), wk =   0.0058594
        k(   27) = (   0.0000000   0.1250000   0.2500000), wk =   0.0058594
        k(   28) = (   0.0000000   0.1250000   0.3125000), wk =   0.0058594
        k(   29) = (   0.0000000   0.1250000   0.3750000), wk =   0.0058594
        k(   30) = (   0.0000000   0.1250000   0.4375000), wk =   0.0058594
        k(   31) = (   0.0000000   0.1250000  -0.5000000), wk =   0.0058594
        k(   32) = (   0.0000000   0.1250000  -0.4375000), wk =   0.0058594
        k(   33) = (   0.0000000   0.1250000  -0.3750000), wk =   0.0058594
        k(   34) = (   0.0000000   0.1250000  -0.3125000), wk =   0.0058594
        k(   35) = (   0.0000000   0.1250000  -0.2500000), wk =   0.0058594
        k(   36) = (   0.0000000   0.1250000  -0.1875000), wk =   0.0058594
        k(   37) = (   0.0000000   0.1250000  -0.1250000), wk =   0.0029297
        k(   38) = (   0.0000000   0.1875000   0.1875000), wk =   0.0014648
        k(   39) = (   0.0000000   0.1875000   0.2500000), wk =   0.0058594
        k(   40) = (   0.0000000   0.1875000   0.3125000), wk =   0.0058594
        k(   41) = (   0.0000000   0.1875000   0.3750000), wk =   0.0058594
        k(   42) = (   0.0000000   0.1875000   0.4375000), wk =   0.0058594
        k(   43) = (   0.0000000   0.1875000  -0.5000000), wk =   0.0058594
        k(   44) = (   0.0000000   0.1875000  -0.4375000), wk =   0.0058594
        k(   45) = (   0.0000000   0.1875000  -0.3750000), wk =   0.0058594
        k(   46) = (   0.0000000   0.1875000  -0.3125000), wk =   0.0058594
        k(   47) = (   0.0000000   0.1875000  -0.2500000), wk =   0.0058594
        k(   48) = (   0.0000000   0.1875000  -0.1875000), wk =   0.0029297
        k(   49) = (   0.0000000   0.2500000   0.2500000), wk =   0.0014648
        k(   50) = (   0.0000000   0.2500000   0.3125000), wk =   0.0058594
        k(   51) = (   0.0000000   0.2500000   0.3750000), wk =   0.0058594
        k(   52) = (   0.0000000   0.2500000   0.4375000), wk =   0.0058594
        k(   53) = (   0.0000000   0.2500000  -0.5000000), wk =   0.0058594
        k(   54) = (   0.0000000   0.2500000  -0.4375000), wk =   0.0058594
        k(   55) = (   0.0000000   0.2500000  -0.3750000), wk =   0.0058594
        k(   56) = (   0.0000000   0.2500000  -0.3125000), wk =   0.0058594
        k(   57) = (   0.0000000   0.2500000  -0.2500000), wk =   0.0029297
        k(   58) = (   0.0000000   0.3125000   0.3125000), wk =   0.0014648
        k(   59) = (   0.0000000   0.3125000   0.3750000), wk =   0.0058594
        k(   60) = (   0.0000000   0.3125000   0.4375000), wk =   0.0058594
        k(   61) = (   0.0000000   0.3125000  -0.5000000), wk =   0.0058594
        k(   62) = (   0.0000000   0.3125000  -0.4375000), wk =   0.0058594
        k(   63) = (   0.0000000   0.3125000  -0.3750000), wk =   0.0058594
        k(   64) = (   0.0000000   0.3125000  -0.3125000), wk =   0.0029297
        k(   65) = (   0.0000000   0.3750000   0.3750000), wk =   0.0014648
        k(   66) = (   0.0000000   0.3750000   0.4375000), wk =   0.0058594
        k(   67) = (   0.0000000   0.3750000  -0.5000000), wk =   0.0058594
        k(   68) = (   0.0000000   0.3750000  -0.4375000), wk =   0.0058594
        k(   69) = (   0.0000000   0.3750000  -0.3750000), wk =   0.0029297
        k(   70) = (   0.0000000   0.4375000   0.4375000), wk =   0.0014648
        k(   71) = (   0.0000000   0.4375000  -0.5000000), wk =   0.0058594
        k(   72) = (   0.0000000   0.4375000  -0.4375000), wk =   0.0029297
        k(   73) = (   0.0000000  -0.5000000  -0.5000000), wk =   0.0007324
        k(   74) = (   0.0625000   0.1250000   0.1875000), wk =   0.0058594
        k(   75) = (   0.0625000   0.1250000   0.2500000), wk =   0.0117188
        k(   76) = (   0.0625000   0.1250000   0.3125000), wk =   0.0117188
        k(   77) = (   0.0625000   0.1250000   0.3750000), wk =   0.0117188
        k(   78) = (   0.0625000   0.1250000   0.4375000), wk =   0.0117188
        k(   79) = (   0.0625000   0.1250000  -0.5000000), wk =   0.0117188
        k(   80) = (   0.0625000   0.1250000  -0.4375000), wk =   0.0058594
        k(   81) = (   0.0625000   0.1875000   0.2500000), wk =   0.0058594
        k(   82) = (   0.0625000   0.1875000   0.3125000), wk =   0.0117188
        k(   83) = (   0.0625000   0.1875000   0.3750000), wk =   0.0117188
        k(   84) = (   0.0625000   0.1875000   0.4375000), wk =   0.0117188
        k(   85) = (   0.0625000   0.1875000  -0.5000000), wk =   0.0117188
        k(   86) = (   0.0625000   0.1875000  -0.4375000), wk =   0.0117188
        k(   87) = (   0.0625000   0.1875000  -0.3750000), wk =   0.0117188
        k(   88) = (   0.0625000   0.1875000  -0.3125000), wk =   0.0117188
        k(   89) = (   0.0625000   0.1875000  -0.2500000), wk =   0.0117188
        k(   90) = (   0.0625000   0.1875000  -0.1875000), wk =   0.0117188
        k(   91) = (   0.0625000   0.1875000  -0.1250000), wk =   0.0058594
        k(   92) = (   0.0625000   0.2500000   0.3125000), wk =   0.0058594
        k(   93) = (   0.0625000   0.2500000   0.3750000), wk =   0.0117188
        k(   94) = (   0.0625000   0.2500000   0.4375000), wk =   0.0117188
        k(   95) = (   0.0625000   0.2500000  -0.5000000), wk =   0.0117188
        k(   96) = (   0.0625000   0.2500000  -0.4375000), wk =   0.0117188
        k(   97) = (   0.0625000   0.2500000  -0.3750000), wk =   0.0117188
        k(   98) = (   0.0625000   0.2500000  -0.3125000), wk =   0.0117188
        k(   99) = (   0.0625000   0.2500000  -0.2500000), wk =   0.0117188
        k(  100) = (   0.0625000   0.2500000  -0.1875000), wk =   0.0058594
        k(  101) = (   0.0625000   0.3125000   0.3750000), wk =   0.0058594
        k(  102) = (   0.0625000   0.3125000   0.4375000), wk =   0.0117188
        k(  103) = (   0.0625000   0.3125000  -0.5000000), wk =   0.0117188
        k(  104) = (   0.0625000   0.3125000  -0.4375000), wk =   0.0117188
        k(  105) = (   0.0625000   0.3125000  -0.3750000), wk =   0.0117188
        k(  106) = (   0.0625000   0.3125000  -0.3125000), wk =   0.0117188
        k(  107) = (   0.0625000   0.3125000  -0.2500000), wk =   0.0058594
        k(  108) = (   0.0625000   0.3750000   0.4375000), wk =   0.0058594
        k(  109) = (   0.0625000   0.3750000  -0.5000000), wk =   0.0117188
        k(  110) = (   0.0625000   0.3750000  -0.4375000), wk =   0.0117188
        k(  111) = (   0.0625000   0.3750000  -0.3750000), wk =   0.0117188
        k(  112) = (   0.0625000   0.3750000  -0.3125000), wk =   0.0058594
        k(  113) = (   0.0625000   0.4375000  -0.5000000), wk =   0.0058594
        k(  114) = (   0.0625000   0.4375000  -0.4375000), wk =   0.0117188
        k(  115) = (   0.0625000   0.4375000  -0.3750000), wk =   0.0058594
        k(  116) = (   0.0625000  -0.5000000  -0.4375000), wk =   0.0029297
        k(  117) = (   0.1250000   0.2500000   0.3750000), wk =   0.0058594
        k(  118) = (   0.1250000   0.2500000   0.4375000), wk =   0.0117188
        k(  119) = (   0.1250000   0.2500000  -0.5000000), wk =   0.0117188
        k(  120) = (   0.1250000   0.2500000  -0.4375000), wk =   0.0117188
        k(  121) = (   0.1250000   0.2500000  -0.3750000), wk =   0.0058594
        k(  122) = (   0.1250000   0.3125000   0.4375000), wk =   0.0058594
        k(  123) = (   0.1250000   0.3125000  -0.5000000), wk =   0.0117188
        k(  124) = (   0.1250000   0.3125000  -0.4375000), wk =   0.0117188
        k(  125) = (   0.1250000   0.3125000  -0.3750000), wk =   0.0117188
        k(  126) = (   0.1250000   0.3125000  -0.3125000), wk =   0.0117188
        k(  127) = (   0.1250000   0.3125000  -0.2500000), wk =   0.0117188
        k(  128) = (   0.1250000   0.3125000  -0.1875000), wk =   0.0058594
        k(  129) = (   0.1250000   0.3750000  -0.5000000), wk =   0.0058594
        k(  130) = (   0.1250000   0.3750000  -0.4375000), wk =   0.0117188
        k(  131) = (   0.1250000   0.3750000  -0.3750000), wk =   0.0117188
        k(  132) = (   0.1250000   0.3750000  -0.3125000), wk =   0.0117188
        k(  133) = (   0.1250000   0.3750000  -0.2500000), wk =   0.0058594
        k(  134) = (   0.1250000   0.4375000  -0.4375000), wk =   0.0058594
        k(  135) = (   0.1250000   0.4375000  -0.3750000), wk =   0.0117188
        k(  136) = (   0.1250000   0.4375000  -0.3125000), wk =   0.0058594
        k(  137) = (   0.1250000  -0.5000000  -0.3750000), wk =   0.0029297
        k(  138) = (   0.1875000   0.3750000  -0.4375000), wk =   0.0058594
        k(  139) = (   0.1875000   0.3750000  -0.3750000), wk =   0.0117188
        k(  140) = (   0.1875000   0.3750000  -0.3125000), wk =   0.0058594
        k(  141) = (   0.1875000   0.4375000  -0.3750000), wk =   0.0058594
        k(  142) = (   0.1875000   0.4375000  -0.3125000), wk =   0.0117188
        k(  143) = (   0.1875000   0.4375000  -0.2500000), wk =   0.0058594
        k(  144) = (   0.1875000  -0.5000000  -0.3125000), wk =   0.0029297
        k(  145) = (   0.2500000  -0.5000000  -0.2500000), wk =   0.0014648

     Dense  grid:    57655 G-vectors     FFT dimensions: (  54,  54,  54)

     Largest allocated arrays     est. size (Mb)     dimensions
        Kohn-Sham Wavefunctions         0.51 Mb     (     920,   36)
        NL pseudopotentials             0.25 Mb     (     460,   36)
        Each V/rho on FFT grid          0.18 Mb     (   11664)
        Each G-vector array             0.03 Mb     (    3604)
        G-vector shells                 0.00 Mb     (     461)
     Largest temporary arrays     est. size (Mb)     dimensions
        Auxiliary wavefunctions         2.02 Mb     (     920,  144)
        Each subspace H/S matrix        0.32 Mb     (     144,  144)
        Each <psi_i|beta_j> matrix      0.04 Mb     (      36,   2,   36)
        Arrays for rho mixing           1.42 Mb     (   11664,    8)

     Check: negative/imaginary core charge=   -0.000001    0.000000

     Initial potential from superposition of free atoms

     starting charge   27.99723, renormalised to   28.00000
     Starting wfc are   36 randomized atomic wfcs
     Checking if some PAW data can be deallocated... 

     total cpu time spent up to now is       18.5 secs

     Self-consistent Calculation

     iteration #  1     ecut=    90.00 Ry     beta=0.70
     Davidson diagonalization with overlap
     ethr =  1.00E-02,  avg # of iterations =  3.5

     Threshold (ethr) on eigenvalues was too large:
     Diagonalizing with lowered threshold

     Davidson diagonalization with overlap
     ethr =  6.61E-05,  avg # of iterations =  3.3

     total cpu time spent up to now is      119.2 secs

     total energy              =    -884.12167300 Ry
     Harris-Foulkes estimate   =    -884.12508751 Ry
     estimated scf accuracy    <       0.02229293 Ry

     iteration #  2     ecut=    90.00 Ry     beta=0.70
     Davidson diagonalization with overlap
     ethr =  7.96E-05,  avg # of iterations =  1.0

     total cpu time spent up to now is      159.1 secs

     total energy              =    -884.12255227 Ry
     Harris-Foulkes estimate   =    -884.12261707 Ry
     estimated scf accuracy    <       0.00159695 Ry

     iteration #  3     ecut=    90.00 Ry     beta=0.70
     Davidson diagonalization with overlap
     ethr =  5.70E-06,  avg # of iterations =  2.5

     total cpu time spent up to now is      214.4 secs

     total energy              =    -884.12281169 Ry
     Harris-Foulkes estimate   =    -884.12284207 Ry
     estimated scf accuracy    <       0.00006781 Ry

     iteration #  4     ecut=    90.00 Ry     beta=0.70
     Davidson diagonalization with overlap
     ethr =  2.42E-07,  avg # of iterations =  2.0

     total cpu time spent up to now is      267.4 secs

     total energy              =    -884.12283290 Ry
     Harris-Foulkes estimate   =    -884.12283121 Ry
     estimated scf accuracy    <       0.00000469 Ry

     iteration #  5     ecut=    90.00 Ry     beta=0.70
     Davidson diagonalization with overlap
     ethr =  1.68E-08,  avg # of iterations =  2.0

     total cpu time spent up to now is      310.5 secs

     End of self-consistent calculation

          k = 0.0000 0.0000 0.0000 (  7239 PWs)   bands (ev):

   -14.6624 -14.6624 -14.6624 -14.6624 -14.6624 -14.6624 -14.6145 -14.6145
   -14.6145 -14.6145 -14.3658 -14.3658 -14.3658 -14.3658 -14.3657 -14.3657
   -14.3657 -14.3657 -14.3657 -14.3657  -3.1873  -3.1873   5.6995   5.6995
     6.9819   6.9819   6.9819   6.9819   6.9819   6.9819   9.0471   9.0471
     9.0471   9.0471   9.0471   9.0471

     occupation numbers 
     1.0000   1.0000   1.0000   1.0000   1.0000   1.0000   1.0000   1.0000
     1.0000   1.0000   1.0000   1.0000   1.0000   1.0000   1.0000   1.0000
     1.0000   1.0000   1.0000   1.0000   1.0000   1.0000   1.0000   1.0000
     0.0000   0.0000   0.0000   0.0000   0.0000   0.0000   0.0000   0.0000
     0.0000   0.0000   0.0000   0.0000

          k = 0.0442 0.0442-0.0442 (  7267 PWs)   bands (ev):

   -14.6650 -14.6650 -14.6650 -14.6650 -14.6616 -14.6616 -14.6111 -14.6111
   -14.6111 -14.6111 -14.3765 -14.3765 -14.3765 -14.3765 -14.3667 -14.3667
   -14.3557 -14.3557 -14.3557 -14.3557  -3.1525  -3.1525   5.3051   5.3051
     6.9094   6.9094   6.9094   6.9094   7.1636   7.1636   9.1419   9.1419
     9.1419   9.1419   9.1760   9.1760

     occupation numbers 
     1.0000   1.0000   1.0000   1.0000   1.0000   1.0000   1.0000   1.0000
     1.0000   1.0000   1.0000   1.0000   1.0000   1.0000   1.0000   1.0000
     1.0000   1.0000   1.0000   1.0000   1.0000   1.0000   1.0000   1.0000
     0.0243   0.0243   0.0243   0.0243   0.0000   0.0000   0.0000   0.0000
     0.0000   0.0000   0.0000   0.0000

          k = 0.0884 0.0884-0.0884 (  7240 PWs)   bands (ev):

   -14.6709 -14.6709 -14.6709 -14.6709 -14.6592 -14.6592 -14.6027 -14.6027
   -14.6027 -14.6027 -14.3871 -14.3871 -14.3871 -14.3871 -14.3695 -14.3695
   -14.3466 -14.3466 -14.3466 -14.3466  -3.0491  -3.0491   4.5449   4.5449
     6.7321   6.7321   6.7321   6.7321   7.2933   7.2933   9.3759   9.3759
     9.3759   9.3759   9.6078   9.6078

     occupation numbers 
     1.0000   1.0000   1.0000   1.0000   1.0000   1.0000   1.0000   1.0000
     1.0000   1.0000   1.0000   1.0000   1.0000   1.0000   1.0000   1.0000
     1.0000   1.0000   1.0000   1.0000   1.0000   1.0000   1.0000   1.0000
     1.0000   1.0000   1.0000   1.0000   0.0000   0.0000   0.0000   0.0000
     0.0000   0.0000   0.0000   0.0000

          k = 0.1326 0.1326-0.1326 (  7237 PWs)   bands (ev):

   -14.6772 -14.6772 -14.6772 -14.6772 -14.6557 -14.6557 -14.5928 -14.5928
   -14.5928 -14.5928 -14.3970 -14.3970 -14.3970 -14.3970 -14.3737 -14.3737
   -14.3389 -14.3389 -14.3389 -14.3389  -2.8798  -2.8798   3.7156   3.7156
     6.5175   6.5175   6.5175   6.5175   7.2301   7.2301   9.6513   9.6513
     9.6513   9.6513  10.2876  10.2876

     occupation numbers 
     1.0000   1.0000   1.0000   1.0000   1.0000   1.0000   1.0000   1.0000
     1.0000   1.0000   1.0000   1.0000   1.0000   1.0000   1.0000   1.0000
     1.0000   1.0000   1.0000   1.0000   1.0000   1.0000   1.0000   1.0000
     1.0000   1.0000   1.0000   1.0000   0.0000   0.0000   0.0000   0.0000
     0.0000   0.0000   0.0000   0.0000

          k = 0.1768 0.1768-0.1768 (  7243 PWs)   bands (ev):

   -14.6827 -14.6827 -14.6827 -14.6827 -14.6514 -14.6514 -14.5834 -14.5834
   -14.5834 -14.5834 -14.4055 -14.4055 -14.4055 -14.4055 -14.3788 -14.3788
   -14.3328 -14.3328 -14.3328 -14.3328  -2.6512  -2.6512   2.9043   2.9043
     6.3109   6.3109   6.3109   6.3109   7.0903   7.0903   9.8819   9.8819
     9.8819   9.8819  11.0961  11.0961

     occupation numbers 
     1.0000   1.0000   1.0000   1.0000   1.0000   1.0000   1.0000   1.0000
     1.0000   1.0000   1.0000   1.0000   1.0000   1.0000   1.0000   1.0000
     1.0000   1.0000   1.0000   1.0000   1.0000   1.0000   1.0000   1.0000
     1.0000   1.0000   1.0000   1.0000   0.0000   0.0000   0.0000   0.0000
     0.0000   0.0000   0.0000   0.0000

          k = 0.2210 0.2210-0.2210 (  7237 PWs)   bands (ev):

   -14.6868 -14.6868 -14.6868 -14.6868 -14.6469 -14.6469 -14.5758 -14.5758
   -14.5758 -14.5758 -14.4120 -14.4120 -14.4120 -14.4120 -14.3840 -14.3840
   -14.3282 -14.3282 -14.3282 -14.3282  -2.3762  -2.3762   2.1565   2.1565
     6.1361   6.1361   6.1361   6.1361   6.9485   6.9485  10.0218  10.0218
    10.0218  10.0218  11.9606  11.9606

     occupation numbers 
     1.0000   1.0000   1.0000   1.0000   1.0000   1.0000   1.0000   1.0000
     1.0000   1.0000   1.0000   1.0000   1.0000   1.0000   1.0000   1.0000
     1.0000   1.0000   1.0000   1.0000   1.0000   1.0000   1.0000   1.0000
     1.0000   1.0000   1.0000   1.0000   0.0000   0.0000   0.0000   0.0000
     0.0000   0.0000   0.0000   0.0000

          k = 0.2652 0.2652-0.2652 (  7228 PWs)   bands (ev):

   -14.6895 -14.6895 -14.6895 -14.6895 -14.6430 -14.6430 -14.5704 -14.5704
   -14.5704 -14.5704 -14.4163 -14.4163 -14.4163 -14.4163 -14.3886 -14.3886
   -14.3252 -14.3252 -14.3252 -14.3252  -2.0830  -2.0830   1.5167   1.5167
     6.0054   6.0054   6.0054   6.0054   6.8358   6.8358  10.0789  10.0789
    10.0789  10.0789  12.6224  12.6224

     occupation numbers 
     1.0000   1.0000   1.0000   1.0000   1.0000   1.0000   1.0000   1.0000
     1.0000   1.0000   1.0000   1.0000   1.0000   1.0000   1.0000   1.0000
     1.0000   1.0000   1.0000   1.0000   1.0000   1.0000   1.0000   1.0000
     1.0000   1.0000   1.0000   1.0000   1.0000   1.0000   0.0000   0.0000
     0.0000   0.0000   0.0000   0.0000

          k = 0.3094 0.3094-0.3094 (  7234 PWs)   bands (ev):

   -14.6910 -14.6910 -14.6910 -14.6910 -14.6404 -14.6404 -14.5673 -14.5673
   -14.5673 -14.5673 -14.4187 -14.4187 -14.4187 -14.4187 -14.3917 -14.3917
   -14.3234 -14.3234 -14.3234 -14.3234  -1.8316  -1.8316   1.0542   1.0542
     5.9250   5.9250   5.9250   5.9250   6.7650   6.7650  10.0915  10.0915
    10.0915  10.0915  12.6465  12.6465

     occupation numbers 
     1.0000   1.0000   1.0000   1.0000   1.0000   1.0000   1.0000   1.0000
     1.0000   1.0000   1.0000   1.0000   1.0000   1.0000   1.0000   1.0000
     1.0000   1.0000   1.0000   1.0000   1.0000   1.0000   1.0000   1.0000
     1.0000   1.0000   1.0000   1.0000   1.0000   1.0000   0.0000   0.0000
     0.0000   0.0000   0.0000   0.0000

          k =-0.3536-0.3536 0.3536 (  7192 PWs)   bands (ev):

   -14.6915 -14.6915 -14.6915 -14.6915 -14.6394 -14.6394 -14.5663 -14.5663
   -14.5663 -14.5663 -14.4194 -14.4194 -14.4194 -14.4194 -14.3928 -14.3928
   -14.3228 -14.3228 -14.3228 -14.3228  -1.7253  -1.7253   0.8771   0.8771
     5.8980   5.8980   5.8980   5.8980   6.7409   6.7409  10.0918  10.0918
    10.0918  10.0918  12.6213  12.6213

     occupation numbers 
     1.0000   1.0000   1.0000   1.0000   1.0000   1.0000   1.0000   1.0000
     1.0000   1.0000   1.0000   1.0000   1.0000   1.0000   1.0000   1.0000
     1.0000   1.0000   1.0000   1.0000   1.0000   1.0000   1.0000   1.0000
     1.0000   1.0000   1.0000   1.0000   1.0000   1.0000   0.0000   0.0000
     0.0000   0.0000   0.0000   0.0000

          k = 0.0884 0.0000 0.0000 (  7255 PWs)   bands (ev):

   -14.6647 -14.6647 -14.6643 -14.6643 -14.6643 -14.6643 -14.6121 -14.6121
   -14.6075 -14.6075 -14.3856 -14.3856 -14.3681 -14.3681 -14.3632 -14.3632
   -14.3632 -14.3632 -14.3516 -14.3516  -3.1409  -3.1409   5.2252   5.2252
     6.7768   6.7768   6.7768   6.7768   7.4370   7.4370   8.9021   8.9021
     9.3116   9.3116   9.3116   9.3116

     occupation numbers 
     1.0000   1.0000   1.0000   1.0000   1.0000   1.0000   1.0000   1.0000
     1.0000   1.0000   1.0000   1.0000   1.0000   1.0000   1.0000   1.0000
     1.0000   1.0000   1.0000   1.0000   1.0000   1.0000   1.0000   1.0000
     1.0000   1.0000   1.0000   1.0000   0.0000   0.0000   0.0000   0.0000
     0.0000   0.0000   0.0000   0.0000

          k = 0.1326 0.0442-0.0442 (  7242 PWs)   bands (ev):

   -14.6708 -14.6708 -14.6680 -14.6680 -14.6621 -14.6621 -14.6069 -14.6069
   -14.5989 -14.5989 -14.3969 -14.3969 -14.3771 -14.3771 -14.3634 -14.3634
   -14.3547 -14.3547 -14.3446 -14.3446  -3.0601  -3.0601   4.6615   4.6615
     6.5690   6.5690   6.6002   6.6002   7.6897   7.6897   8.9007   8.9007
     9.5945   9.5945   9.6680   9.6680

     occupation numbers 
     1.0000   1.0000   1.0000   1.0000   1.0000   1.0000   1.0000   1.0000
     1.0000   1.0000   1.0000   1.0000   1.0000   1.0000   1.0000   1.0000
     1.0000   1.0000   1.0000   1.0000   1.0000   1.0000   1.0000   1.0000
     1.0000   1.0000   1.0000   1.0000   0.0000   0.0000   0.0000   0.0000
     0.0000   0.0000   0.0000   0.0000

          k = 0.1768 0.0884-0.0884 (  7236 PWs)   bands (ev):

   -14.6780 -14.6780 -14.6738 -14.6738 -14.6581 -14.6581 -14.5983 -14.5983
   -14.5884 -14.5884 -14.4077 -14.4077 -14.3872 -14.3872 -14.3674 -14.3674
   -14.3459 -14.3459 -14.3368 -14.3368  -2.9124  -2.9124   3.9082   3.9082
     6.3468   6.3468   6.3829   6.3829   7.7081   7.7081   9.1276   9.1276
     9.9001   9.9002  10.2192  10.2192

     occupation numbers 
     1.0000   1.0000   1.0000   1.0000   1.0000   1.0000   1.0000   1.0000
     1.0000   1.0000   1.0000   1.0000   1.0000   1.0000   1.0000   1.0000
     1.0000   1.0000   1.0000   1.0000   1.0000   1.0000   1.0000   1.0000
     1.0000   1.0000   1.0000   1.0000   0.0000   0.0000   0.0000   0.0000
     0.0000   0.0000   0.0000   0.0000

          k = 0.2210 0.1326-0.1326 (  7246 PWs)   bands (ev):

   -14.6846 -14.6846 -14.6795 -14.6795 -14.6527 -14.6527 -14.5890 -14.5890
   -14.5784 -14.5784 -14.4167 -14.4167 -14.3966 -14.3966 -14.3735 -14.3735
   -14.3385 -14.3385 -14.3299 -14.3299  -2.7026  -2.7026   3.1203   3.1203
     6.1424   6.1424   6.1466   6.1466   7.5933   7.5933   9.4402   9.4402
    10.1478  10.1478  10.8635  10.8636

     occupation numbers 
     1.0000   1.0000   1.0000   1.0000   1.0000   1.0000   1.0000   1.0000
     1.0000   1.0000   1.0000   1.0000   1.0000   1.0000   1.0000   1.0000
     1.0000   1.0000   1.0000   1.0000   1.0000   1.0000   1.0000   1.0000
     1.0000   1.0000   1.0000   1.0000   0.0000   0.0000   0.0000   0.0000
     0.0000   0.0000   0.0000   0.0000

          k = 0.2652 0.1768-0.1768 (  7237 PWs)   bands (ev):

   -14.6898 -14.6898 -14.6843 -14.6843 -14.6468 -14.6468 -14.5804 -14.5804
   -14.5702 -14.5702 -14.4231 -14.4231 -14.4048 -14.4048 -14.3806 -14.3806
   -14.3324 -14.3324 -14.3245 -14.3245  -2.4409  -2.4409   2.3668   2.3668
     5.9172   5.9172   5.9875   5.9875   7.4481   7.4481   9.7009   9.7009
    10.2862  10.2862  11.5420  11.5421

     occupation numbers 
     1.0000   1.0000   1.0000   1.0000   1.0000   1.0000   1.0000   1.0000
     1.0000   1.0000   1.0000   1.0000   1.0000   1.0000   1.0000   1.0000
     1.0000   1.0000   1.0000   1.0000   1.0000   1.0000   1.0000   1.0000
     1.0000   1.0000   1.0000   1.0000   0.0000   0.0000   0.0000   0.0000
     0.0000   0.0000   0.0000   0.0000

          k = 0.3094 0.2210-0.2210 (  7234 PWs)   bands (ev):

   -14.6934 -14.6934 -14.6880 -14.6880 -14.6411 -14.6411 -14.5733 -14.5733
   -14.5650 -14.5650 -14.4262 -14.4262 -14.4116 -14.4116 -14.3877 -14.3877
   -14.3278 -14.3278 -14.3207 -14.3207  -2.1489  -2.1489   1.6966   1.6966
     5.7288   5.7288   5.8791   5.8791   7.3186   7.3186   9.8603   9.8603
    10.3181  10.3181  12.2107  12.2107

     occupation numbers 
     1.0000   1.0000   1.0000   1.0000   1.0000   1.0000   1.0000   1.0000
     1.0000   1.0000   1.0000   1.0000   1.0000   1.0000   1.0000   1.0000
     1.0000   1.0000   1.0000   1.0000   1.0000   1.0000   1.0000   1.0000
     1.0000   1.0000   1.0000   1.0000   0.0000   0.0000   0.0000   0.0000
     0.0000   0.0000   0.0000   0.0000

          k = 0.3536 0.2652-0.2652 (  7233 PWs)   bands (ev):

   -14.6954 -14.6954 -14.6906 -14.6906 -14.6366 -14.6366 -14.5679 -14.5679
   -14.5629 -14.5629 -14.4261 -14.4261 -14.4170 -14.4170 -14.3937 -14.3937
   -14.3243 -14.3243 -14.3186 -14.3186  -1.8733  -1.8733   1.1707   1.1707
     5.5884   5.5884   5.8261   5.8261   7.2242   7.2242   9.9473   9.9473
    10.2849  10.2849  12.6423  12.6423

     occupation numbers 
     1.0000   1.0000   1.0000   1.0000   1.0000   1.0000   1.0000   1.0000
     1.0000   1.0000   1.0000   1.0000   1.0000   1.0000   1.0000   1.0000
     1.0000   1.0000   1.0000   1.0000   1.0000   1.0000   1.0000   1.0000
     1.0000   1.0000   1.0000   1.0000   0.0000   0.0000   0.0000   0.0000
     0.0000   0.0000   0.0000   0.0000

          k =-0.3094-0.3977 0.3977 (  7214 PWs)   bands (ev):

   -14.6960 -14.6960 -14.6922 -14.6922 -14.6341 -14.6341 -14.5642 -14.5642
   -14.5635 -14.5635 -14.4234 -14.4234 -14.4212 -14.4212 -14.3974 -14.3974
   -14.3220 -14.3220 -14.3182 -14.3182  -1.7055  -1.7055   0.8880   0.8880
     5.5017   5.5017   5.8298   5.8298   7.1734   7.1734  10.0081  10.0081
    10.2273  10.2273  12.7355  12.7355

     occupation numbers 
     1.0000   1.0000   1.0000   1.0000   1.0000   1.0000   1.0000   1.0000
     1.0000   1.0000   1.0000   1.0000   1.0000   1.0000   1.0000   1.0000
     1.0000   1.0000   1.0000   1.0000   1.0000   1.0000   1.0000   1.0000
     1.0000   1.0000   1.0000   1.0000   0.0000   0.0000   0.0000   0.0000
     0.0000   0.0000   0.0000   0.0000

          k =-0.2652-0.3536 0.3536 (  7222 PWs)   bands (ev):

   -14.6951 -14.6951 -14.6929 -14.6929 -14.6342 -14.6342 -14.5661 -14.5661
   -14.5625 -14.5625 -14.4238 -14.4238 -14.4195 -14.4195 -14.3979 -14.3979
   -14.3210 -14.3210 -14.3195 -14.3195  -1.7425  -1.7425   0.9482   0.9482
     5.4724   5.4724   5.8892   5.8892   7.1690   7.1690  10.0679  10.0679
    10.1650  10.1650  12.7484  12.7484

     occupation numbers 
     1.0000   1.0000   1.0000   1.0000   1.0000   1.0000   1.0000   1.0000
     1.0000   1.0000   1.0000   1.0000   1.0000   1.0000   1.0000   1.0000
     1.0000   1.0000   1.0000   1.0000   1.0000   1.0000   1.0000   1.0000
     1.0000   1.0000   1.0000   1.0000   0.0000   0.0000   0.0000   0.0000
     0.0000   0.0000   0.0000   0.0000

          k =-0.2210-0.3094 0.3094 (  7239 PWs)   bands (ev):

   -14.6929 -14.6929 -14.6924 -14.6924 -14.6368 -14.6368 -14.5703 -14.5703
   -14.5632 -14.5632 -14.4244 -14.4244 -14.4154 -14.4154 -14.3944 -14.3944
   -14.3225 -14.3225 -14.3212 -14.3212  -1.9593  -1.9593   1.3259   1.3259
     5.5029   5.5029   6.0012   6.0012   7.2107   7.2107  10.0943  10.0943
    10.1235  10.1235  12.6353  12.6353

     occupation numbers 
     1.0000   1.0000   1.0000   1.0000   1.0000   1.0000   1.0000   1.0000
     1.0000   1.0000   1.0000   1.0000   1.0000   1.0000   1.0000   1.0000
     1.0000   1.0000   1.0000   1.0000   1.0000   1.0000   1.0000   1.0000
     1.0000   1.0000   1.0000   1.0000   0.0000   0.0000   0.0000   0.0000
     0.0000   0.0000   0.0000   0.0000

          k =-0.1768-0.2652 0.2652 (  7233 PWs)   bands (ev):

   -14.6907 -14.6907 -14.6894 -14.6894 -14.6415 -14.6415 -14.5760 -14.5760
   -14.5669 -14.5669 -14.4222 -14.4222 -14.4111 -14.4111 -14.3877 -14.3877
   -14.3271 -14.3271 -14.3229 -14.3229  -2.2481  -2.2481   1.9086   1.9086
     5.5946   5.5946   6.1601   6.1601   7.2939   7.2939   9.9907   9.9907
    10.1408  10.1408  12.0647  12.0647

     occupation numbers 
     1.0000   1.0000   1.0000   1.0000   1.0000   1.0000   1.0000   1.0000
     1.0000   1.0000   1.0000   1.0000   1.0000   1.0000   1.0000   1.0000
     1.0000   1.0000   1.0000   1.0000   1.0000   1.0000   1.0000   1.0000
     1.0000   1.0000   1.0000   1.0000   0.0000   0.0000   0.0000   0.0000
     0.0000   0.0000   0.0000   0.0000

          k =-0.1326-0.2210 0.2210 (  7244 PWs)   bands (ev):

   -14.6874 -14.6874 -14.6845 -14.6845 -14.6473 -14.6473 -14.5831 -14.5831
   -14.5737 -14.5737 -14.4170 -14.4170 -14.4056 -14.4056 -14.3797 -14.3797
   -14.3333 -14.3333 -14.3262 -14.3262  -2.5334  -2.5334   2.6112   2.6112
     5.7480   5.7480   6.3560   6.3560   7.4066   7.4066   9.8231   9.8231
    10.0526  10.0526  11.3351  11.3351

     occupation numbers 
     1.0000   1.0000   1.0000   1.0000   1.0000   1.0000   1.0000   1.0000
     1.0000   1.0000   1.0000   1.0000   1.0000   1.0000   1.0000   1.0000
     1.0000   1.0000   1.0000   1.0000   1.0000   1.0000   1.0000   1.0000
     1.0000   1.0000   1.0000   1.0000   0.0000   0.0000   0.0000   0.0000
     0.0000   0.0000   0.0000   0.0000

          k =-0.0884-0.1768 0.1768 (  7245 PWs)   bands (ev):

   -14.6826 -14.6826 -14.6784 -14.6784 -14.6532 -14.6532 -14.5915 -14.5915
   -14.5831 -14.5831 -14.4089 -14.4089 -14.3984 -14.3984 -14.3717 -14.3717
   -14.3410 -14.3410 -14.3313 -14.3313  -2.7793  -2.7793   3.3787   3.3787
     5.9628   5.9628   6.5713   6.5713   7.5196   7.5196   9.5872   9.5873
     9.7966   9.7966  10.6810  10.6810

     occupation numbers 
     1.0000   1.0000   1.0000   1.0000   1.0000   1.0000   1.0000   1.0000
     1.0000   1.0000   1.0000   1.0000   1.0000   1.0000   1.0000   1.0000
     1.0000   1.0000   1.0000   1.0000   1.0000   1.0000   1.0000   1.0000
     1.0000   1.0000   1.0000   1.0000   0.0000   0.0000   0.0000   0.0000
     0.0000   0.0000   0.0000   0.0000

          k =-0.0442-0.1326 0.1326 (  7233 PWs)   bands (ev):

   -14.6765 -14.6765 -14.6717 -14.6717 -14.6583 -14.6583 -14.6004 -14.6004
   -14.5938 -14.5938 -14.3989 -14.3989 -14.3899 -14.3899 -14.3648 -14.3648
   -14.3500 -14.3500 -14.3380 -14.3380  -2.9691  -2.9691   4.1575   4.1575
     6.2382   6.2382   6.7734   6.7734   7.5634   7.5634   9.3333   9.3333
     9.4401   9.4401  10.1101  10.1101

     occupation numbers 
     1.0000   1.0000   1.0000   1.0000   1.0000   1.0000   1.0000   1.0000
     1.0000   1.0000   1.0000   1.0000   1.0000   1.0000   1.0000   1.0000
     1.0000   1.0000   1.0000   1.0000   1.0000   1.0000   1.0000   1.0000
     1.0000   1.0000   1.0000   1.0000   0.0000   0.0000   0.0000   0.0000
     0.0000   0.0000   0.0000   0.0000

          k = 0.0000-0.0884 0.0884 (  7257 PWs)   bands (ev):

   -14.6700 -14.6700 -14.6662 -14.6662 -14.6614 -14.6614 -14.6079 -14.6079
   -14.6040 -14.6040 -14.3878 -14.3878 -14.3809 -14.3809 -14.3607 -14.3607
   -14.3588 -14.3588 -14.3463 -14.3463  -3.0948  -3.0948   4.8601   4.8601
     6.5730   6.5730   6.9067   6.9067   7.4237   7.4237   9.1544   9.1544
     9.1928   9.1928   9.5882   9.5882

     occupation numbers 
     1.0000   1.0000   1.0000   1.0000   1.0000   1.0000   1.0000   1.0000
     1.0000   1.0000   1.0000   1.0000   1.0000   1.0000   1.0000   1.0000
     1.0000   1.0000   1.0000   1.0000   1.0000   1.0000   1.0000   1.0000
     1.0000   1.0000   0.8009   0.8009   0.0000   0.0000   0.0000   0.0000
     0.0000   0.0000   0.0000   0.0000

          k = 0.1768 0.0000 0.0000 (  7219 PWs)   bands (ev):

   -14.6694 -14.6694 -14.6694 -14.6694 -14.6678 -14.6678 -14.6049 -14.6049
   -14.5900 -14.5900 -14.4102 -14.4102 -14.3750 -14.3750 -14.3562 -14.3562
   -14.3562 -14.3562 -14.3436 -14.3436  -3.0020  -3.0020   4.4119   4.4119
     6.3467   6.3467   6.3467   6.3467   8.1579   8.1579   8.5812   8.5812
     9.9183   9.9183   9.9183   9.9183

     occupation numbers 
     1.0000   1.0000   1.0000   1.0000   1.0000   1.0000   1.0000   1.0000
     1.0000   1.0000   1.0000   1.0000   1.0000   1.0000   1.0000   1.0000
     1.0000   1.0000   1.0000   1.0000   1.0000   1.0000   1.0000   1.0000
     1.0000   1.0000   1.0000   1.0000   0.0000   0.0000   0.0000   0.0000
     0.0000   0.0000   0.0000   0.0000

          k = 0.2210 0.0442-0.0442 (  7224 PWs)   bands (ev):

   -14.6771 -14.6771 -14.6737 -14.6737 -14.6636 -14.6636 -14.5982 -14.5982
   -14.5788 -14.5788 -14.4230 -14.4230 -14.3828 -14.3828 -14.3567 -14.3567
   -14.3492 -14.3492 -14.3380 -14.3380  -2.8761  -2.8761   3.8690   3.8690
     6.1036   6.1036   6.1196   6.1196   8.3407   8.3407   8.5761   8.5761
    10.2647  10.2647  10.3463  10.3464

     occupation numbers 
     1.0000   1.0000   1.0000   1.0000   1.0000   1.0000   1.0000   1.0000
     1.0000   1.0000   1.0000   1.0000   1.0000   1.0000   1.0000   1.0000
     1.0000   1.0000   1.0000   1.0000   1.0000   1.0000   1.0000   1.0000
     1.0000   1.0000   1.0000   1.0000   0.0000   0.0000   0.0000   0.0000
     0.0000   0.0000   0.0000   0.0000

          k = 0.2652 0.0884-0.0884 (  7236 PWs)   bands (ev):

   -14.6854 -14.6854 -14.6790 -14.6790 -14.6565 -14.6565 -14.5894 -14.5894
   -14.5678 -14.5678 -14.4340 -14.4340 -14.3925 -14.3925 -14.3637 -14.3637
   -14.3412 -14.3412 -14.3296 -14.3296  -2.6862  -2.6862   3.1933   3.1933
     5.8232   5.8232   5.9204   5.9204   8.2672   8.2672   8.8699   8.8699
    10.5538  10.5538  10.7808  10.7808

     occupation numbers 
     1.0000   1.0000   1.0000   1.0000   1.0000   1.0000   1.0000   1.0000
     1.0000   1.0000   1.0000   1.0000   1.0000   1.0000   1.0000   1.0000
     1.0000   1.0000   1.0000   1.0000   1.0000   1.0000   1.0000   1.0000
     1.0000   1.0000   1.0000   1.0000   0.0000   0.0000   0.0000   0.0000
     0.0000   0.0000   0.0000   0.0000

          k = 0.3094 0.1326-0.1326 (  7236 PWs)   bands (ev):

   -14.6927 -14.6927 -14.6841 -14.6841 -14.6479 -14.6479 -14.5803 -14.5803
   -14.5587 -14.5587 -14.4420 -14.4420 -14.4020 -14.4020 -14.3733 -14.3733
   -14.3341 -14.3341 -14.3217 -14.3217  -2.4400  -2.4400   2.4917   2.4917
     5.5400   5.5400   5.7670   5.7670   8.1257   8.1257   9.2538   9.2538
    10.7229  10.7229  11.1027  11.1027

     occupation numbers 
     1.0000   1.0000   1.0000   1.0000   1.0000   1.0000   1.0000   1.0000
     1.0000   1.0000   1.0000   1.0000   1.0000   1.0000   1.0000   1.0000
     1.0000   1.0000   1.0000   1.0000   1.0000   1.0000   1.0000   1.0000
     1.0000   1.0000   1.0000   1.0000   0.0000   0.0000   0.0000   0.0000
     0.0000   0.0000   0.0000   0.0000

          k = 0.3536 0.1768-0.1768 (  7223 PWs)   bands (ev):

   -14.6985 -14.6985 -14.6883 -14.6883 -14.6387 -14.6387 -14.5718 -14.5718
   -14.5531 -14.5531 -14.4458 -14.4458 -14.4110 -14.4110 -14.3839 -14.3839
   -14.3281 -14.3281 -14.3154 -14.3154  -2.1540  -2.1540   1.8309   1.8309
     5.2889   5.2889   5.6688   5.6688   7.9827   7.9827   9.5791   9.5791
    10.7600  10.7600  11.4616  11.4616

     occupation numbers 
     1.0000   1.0000   1.0000   1.0000   1.0000   1.0000   1.0000   1.0000
     1.0000   1.0000   1.0000   1.0000   1.0000   1.0000   1.0000   1.0000
     1.0000   1.0000   1.0000   1.0000   1.0000   1.0000   1.0000   1.0000
     1.0000   1.0000   1.0000   1.0000   0.0000   0.0000   0.0000   0.0000
     0.0000   0.0000   0.0000   0.0000

          k = 0.3977 0.2210-0.2210 (  7214 PWs)   bands (ev):

   -14.7025 -14.7025 -14.6916 -14.6916 -14.6303 -14.6303 -14.5643 -14.5643
   -14.5516 -14.5516 -14.4447 -14.4447 -14.4191 -14.4191 -14.3941 -14.3941
   -14.3234 -14.3234 -14.3111 -14.3111  -1.8638  -1.8638   1.2729   1.2729
     5.0877   5.0877   5.6303   5.6303   7.8665   7.8665   9.7786   9.7786
    10.7047  10.7047  11.9797  11.9797

     occupation numbers 
     1.0000   1.0000   1.0000   1.0000   1.0000   1.0000   1.0000   1.0000
     1.0000   1.0000   1.0000   1.0000   1.0000   1.0000   1.0000   1.0000
     1.0000   1.0000   1.0000   1.0000   1.0000   1.0000   1.0000   1.0000
     1.0000   1.0000   1.0000   1.0000   0.0000   0.0000   0.0000   0.0000
     0.0000   0.0000   0.0000   0.0000

          k =-0.2652-0.4419 0.4419 (  7221 PWs)   bands (ev):

   -14.7044 -14.7044 -14.6941 -14.6941 -14.6242 -14.6242 -14.5583 -14.5583
   -14.5540 -14.5540 -14.4391 -14.4391 -14.4262 -14.4262 -14.4026 -14.4026
   -14.3198 -14.3198 -14.3092 -14.3092  -1.6455  -1.6455   0.9077   0.9077
     4.9457   4.9457   5.6523   5.6523   7.7899   7.7899   9.8980   9.8980
    10.6053  10.6053  12.5483  12.5483

     occupation numbers 
     1.0000   1.0000   1.0000   1.0000   1.0000   1.0000   1.0000   1.0000
     1.0000   1.0000   1.0000   1.0000   1.0000   1.0000   1.0000   1.0000
     1.0000   1.0000   1.0000   1.0000   1.0000   1.0000   1.0000   1.0000
     1.0000   1.0000   1.0000   1.0000   0.0000   0.0000   0.0000   0.0000
     0.0000   0.0000   0.0000   0.0000

          k =-0.2210-0.3977 0.3977 (  7216 PWs)   bands (ev):

   -14.7043 -14.7043 -14.6956 -14.6956 -14.6215 -14.6215 -14.5591 -14.5591
   -14.5541 -14.5541 -14.4317 -14.4317 -14.4300 -14.4300 -14.4081 -14.4081
   -14.3176 -14.3176 -14.3097 -14.3097  -1.6102  -1.6102   0.8525   0.8525
     4.8688   4.8688   5.7332   5.7332   7.7574   7.7574   9.9974   9.9974
    10.4899  10.4899  12.8548  12.8548

     occupation numbers 
     1.0000   1.0000   1.0000   1.0000   1.0000   1.0000   1.0000   1.0000
     1.0000   1.0000   1.0000   1.0000   1.0000   1.0000   1.0000   1.0000
     1.0000   1.0000   1.0000   1.0000   1.0000   1.0000   1.0000   1.0000
     1.0000   1.0000   1.0000   1.0000   0.0000   0.0000   0.0000   0.0000
     0.0000   0.0000   0.0000   0.0000

          k =-0.1768-0.3536 0.3536 (  7215 PWs)   bands (ev):

   -14.7020 -14.7020 -14.6959 -14.6959 -14.6231 -14.6231 -14.5655 -14.5655
   -14.5527 -14.5527 -14.4347 -14.4347 -14.4198 -14.4198 -14.4090 -14.4090
   -14.3168 -14.3168 -14.3128 -14.3128  -1.7821  -1.7821   1.1318   1.1318
     4.8624   4.8624   5.8684   5.8684   7.7682   7.7682  10.0987  10.0987
    10.3613  10.3613  12.5995  12.5995

     occupation numbers 
     1.0000   1.0000   1.0000   1.0000   1.0000   1.0000   1.0000   1.0000
     1.0000   1.0000   1.0000   1.0000   1.0000   1.0000   1.0000   1.0000
     1.0000   1.0000   1.0000   1.0000   1.0000   1.0000   1.0000   1.0000
     1.0000   1.0000   1.0000   1.0000   0.0000   0.0000   0.0000   0.0000
     0.0000   0.0000   0.0000   0.0000

          k =-0.1326-0.3094 0.3094 (  7231 PWs)   bands (ev):

   -14.6978 -14.6978 -14.6950 -14.6950 -14.6286 -14.6286 -14.5724 -14.5724
   -14.5550 -14.5550 -14.4341 -14.4341 -14.4143 -14.4143 -14.4007 -14.4007
   -14.3184 -14.3184 -14.3176 -14.3176  -2.0602  -2.0602   1.6385   1.6385
     4.9330   4.9330   6.0497   6.0497   7.8148   7.8148  10.1792  10.1792
    10.2014  10.2014  11.9467  11.9467

     occupation numbers 
     1.0000   1.0000   1.0000   1.0000   1.0000   1.0000   1.0000   1.0000
     1.0000   1.0000   1.0000   1.0000   1.0000   1.0000   1.0000   1.0000
     1.0000   1.0000   1.0000   1.0000   1.0000   1.0000   1.0000   1.0000
     1.0000   1.0000   1.0000   1.0000   0.0000   0.0000   0.0000   0.0000
     0.0000   0.0000   0.0000   0.0000

          k =-0.0884-0.2652 0.2652 (  7243 PWs)   bands (ev):

   -14.6925 -14.6925 -14.6918 -14.6918 -14.6368 -14.6368 -14.5794 -14.5794
   -14.5614 -14.5614 -14.4295 -14.4295 -14.4105 -14.4105 -14.3877 -14.3877
   -14.3263 -14.3263 -14.3201 -14.3201  -2.3526  -2.3526   2.2664   2.2664
     5.0900   5.0900   6.2634   6.2634   7.8788   7.8788   9.9868   9.9868
    10.1463  10.1463  11.3372  11.3372

     occupation numbers 
     1.0000   1.0000   1.0000   1.0000   1.0000   1.0000   1.0000   1.0000
     1.0000   1.0000   1.0000   1.0000   1.0000   1.0000   1.0000   1.0000
     1.0000   1.0000   1.0000   1.0000   1.0000   1.0000   1.0000   1.0000
     1.0000   1.0000   1.0000   1.0000   0.0000   0.0000   0.0000   0.0000
     0.0000   0.0000   0.0000   0.0000

          k =-0.0442-0.2210 0.2210 (  7238 PWs)   bands (ev):

   -14.6883 -14.6883 -14.6846 -14.6846 -14.6457 -14.6457 -14.5868 -14.5868
   -14.5711 -14.5711 -14.4213 -14.4213 -14.4050 -14.4050 -14.3751 -14.3751
   -14.3360 -14.3360 -14.3244 -14.3244  -2.6136  -2.6136   2.9422   2.9422
     5.3482   5.3482   6.4856   6.4856   7.9157   7.9157   9.7240   9.7240
     9.8864   9.8864  10.9542  10.9542

     occupation numbers 
     1.0000   1.0000   1.0000   1.0000   1.0000   1.0000   1.0000   1.0000
     1.0000   1.0000   1.0000   1.0000   1.0000   1.0000   1.0000   1.0000
     1.0000   1.0000   1.0000   1.0000   1.0000   1.0000   1.0000   1.0000
     1.0000   1.0000   1.0000   1.0000   0.0000   0.0000   0.0000   0.0000
     0.0000   0.0000   0.0000   0.0000

          k = 0.0000-0.1768 0.1768 (  7245 PWs)   bands (ev):

   -14.6828 -14.6828 -14.6770 -14.6770 -14.6536 -14.6536 -14.5942 -14.5942
   -14.5825 -14.5825 -14.4107 -14.4107 -14.3978 -14.3978 -14.3652 -14.3652
   -14.3462 -14.3462 -14.3305 -14.3305  -2.8223  -2.8223   3.5977   3.5977
     5.7286   5.7286   6.6755   6.6755   7.8348   7.8348   9.4741   9.4741
     9.5716   9.5716  10.6136  10.6137

     occupation numbers 
     1.0000   1.0000   1.0000   1.0000   1.0000   1.0000   1.0000   1.0000
     1.0000   1.0000   1.0000   1.0000   1.0000   1.0000   1.0000   1.0000
     1.0000   1.0000   1.0000   1.0000   1.0000   1.0000   1.0000   1.0000
     1.0000   1.0000   1.0000   1.0000   0.0000   0.0000   0.0000   0.0000
     0.0000   0.0000   0.0000   0.0000

          k = 0.2652 0.0000 0.0000 (  7231 PWs)   bands (ev):

   -14.6766 -14.6766 -14.6766 -14.6766 -14.6679 -14.6679 -14.5931 -14.5931
   -14.5665 -14.5665 -14.4385 -14.4385 -14.3863 -14.3863 -14.3461 -14.3461
   -14.3461 -14.3461 -14.3421 -14.3421  -2.7718  -2.7718   3.5569   3.5569
     5.8881   5.8881   5.8881   5.8881   8.2396   8.2396   8.7206   8.7206
    10.6657  10.6657  10.6657  10.6657

     occupation numbers 
     1.0000   1.0000   1.0000   1.0000   1.0000   1.0000   1.0000   1.0000
     1.0000   1.0000   1.0000   1.0000   1.0000   1.0000   1.0000   1.0000
     1.0000   1.0000   1.0000   1.0000   1.0000   1.0000   1.0000   1.0000
     1.0000   1.0000   1.0000   1.0000   0.0000   0.0000   0.0000   0.0000
     0.0000   0.0000   0.0000   0.0000

          k = 0.3094 0.0442-0.0442 (  7237 PWs)   bands (ev):

   -14.6841 -14.6841 -14.6811 -14.6811 -14.6620 -14.6620 -14.5851 -14.5851
   -14.5540 -14.5540 -14.4524 -14.4524 -14.3946 -14.3946 -14.3526 -14.3526
   -14.3395 -14.3395 -14.3329 -14.3329  -2.6021  -2.6021   3.0522   3.0522
     5.6287   5.6287   5.6852   5.6852   8.2246   8.2246   8.8227   8.8227
    10.9938  10.9938  11.0224  11.0224

     occupation numbers 
     1.0000   1.0000   1.0000   1.0000   1.0000   1.0000   1.0000   1.0000
     1.0000   1.0000   1.0000   1.0000   1.0000   1.0000   1.0000   1.0000
     1.0000   1.0000   1.0000   1.0000   1.0000   1.0000   1.0000   1.0000
     1.0000   1.0000   1.0000   1.0000   0.0000   0.0000   0.0000   0.0000
     0.0000   0.0000   0.0000   0.0000

          k = 0.3536 0.0884-0.0884 (  7224 PWs)   bands (ev):

   -14.6930 -14.6930 -14.6858 -14.6858 -14.6516 -14.6516 -14.5757 -14.5757
   -14.5432 -14.5432 -14.4632 -14.4632 -14.4044 -14.4044 -14.3644 -14.3644
   -14.3325 -14.3325 -14.3223 -14.3223  -2.3731  -2.3731   2.4606   2.4606
     5.3090   5.3090   5.5294   5.5294   8.3183   8.3183   8.9680   8.9680
    11.0633  11.0634  11.2578  11.2578

     occupation numbers 
     1.0000   1.0000   1.0000   1.0000   1.0000   1.0000   1.0000   1.0000
     1.0000   1.0000   1.0000   1.0000   1.0000   1.0000   1.0000   1.0000
     1.0000   1.0000   1.0000   1.0000   1.0000   1.0000   1.0000   1.0000
     1.0000   1.0000   1.0000   1.0000   0.0000   0.0000   0.0000   0.0000
     0.0000   0.0000   0.0000   0.0000

          k = 0.3977 0.1326-0.1326 (  7227 PWs)   bands (ev):

   -14.7010 -14.7010 -14.6901 -14.6901 -14.6394 -14.6394 -14.5663 -14.5663
   -14.5359 -14.5359 -14.4695 -14.4695 -14.4145 -14.4145 -14.3781 -14.3781
   -14.3262 -14.3262 -14.3131 -14.3131  -2.0968  -2.0968   1.8588   1.8588
     4.9905   4.9905   5.4308   5.4308   8.2884   8.2884   9.3513   9.3513
    11.0694  11.0694  11.3360  11.3360

     occupation numbers 
     1.0000   1.0000   1.0000   1.0000   1.0000   1.0000   1.0000   1.0000
     1.0000   1.0000   1.0000   1.0000   1.0000   1.0000   1.0000   1.0000
     1.0000   1.0000   1.0000   1.0000   1.0000   1.0000   1.0000   1.0000
     1.0000   1.0000   1.0000   1.0000   0.0000   0.0000   0.0000   0.0000
     0.0000   0.0000   0.0000   0.0000

          k = 0.4419 0.1768-0.1768 (  7220 PWs)   bands (ev):

   -14.7072 -14.7072 -14.6937 -14.6937 -14.6272 -14.6272 -14.5573 -14.5573
   -14.5336 -14.5336 -14.4700 -14.4700 -14.4245 -14.4245 -14.3918 -14.3918
   -14.3209 -14.3209 -14.3060 -14.3060  -1.8001  -1.8001   1.3108   1.3108
     4.7166   4.7166   5.3943   5.3943   8.2111   8.2112   9.7687   9.7687
    11.2471  11.2471  11.2864  11.2864

     occupation numbers 
     1.0000   1.0000   1.0000   1.0000   1.0000   1.0000   1.0000   1.0000
     1.0000   1.0000   1.0000   1.0000   1.0000   1.0000   1.0000   1.0000
     1.0000   1.0000   1.0000   1.0000   1.0000   1.0000   1.0000   1.0000
     1.0000   1.0000   1.0000   1.0000   0.0000   0.0000   0.0000   0.0000
     0.0000   0.0000   0.0000   0.0000

          k =-0.2210-0.4861 0.4861 (  7219 PWs)   bands (ev):

   -14.7113 -14.7113 -14.6965 -14.6965 -14.6169 -14.6169 -14.5493 -14.5493
   -14.5367 -14.5367 -14.4646 -14.4646 -14.4337 -14.4337 -14.4037 -14.4037
   -14.3168 -14.3168 -14.3016 -14.3016  -1.5432  -1.5432   0.8984   0.8984
     4.5083   4.5083   5.4213   5.4213   8.1529   8.1529  10.0264  10.0264
    11.1646  11.1646  11.7266  11.7266

     occupation numbers 
     1.0000   1.0000   1.0000   1.0000   1.0000   1.0000   1.0000   1.0000
     1.0000   1.0000   1.0000   1.0000   1.0000   1.0000   1.0000   1.0000
     1.0000   1.0000   1.0000   1.0000   1.0000   1.0000   1.0000   1.0000
     1.0000   1.0000   1.0000   1.0000   0.0000   0.0000   0.0000   0.0000
     0.0000   0.0000   0.0000   0.0000

          k =-0.1768-0.4419 0.4419 (  7212 PWs)   bands (ev):

   -14.7127 -14.7127 -14.6984 -14.6984 -14.6104 -14.6104 -14.5443 -14.5443
   -14.5430 -14.5430 -14.4540 -14.4540 -14.4415 -14.4415 -14.4121 -14.4121
   -14.3140 -14.3140 -14.3003 -14.3003  -1.4381  -1.4381   0.7437   0.7437
     4.3768   4.3768   5.5100   5.5100   8.1311   8.1311  10.1609  10.1609
    11.0078  11.0078  12.3636  12.3636

     occupation numbers 
     1.0000   1.0000   1.0000   1.0000   1.0000   1.0000   1.0000   1.0000
     1.0000   1.0000   1.0000   1.0000   1.0000   1.0000   1.0000   1.0000
     1.0000   1.0000   1.0000   1.0000   1.0000   1.0000   1.0000   1.0000
     1.0000   1.0000   1.0000   1.0000   0.0000   0.0000   0.0000   0.0000
     0.0000   0.0000   0.0000   0.0000

          k =-0.1326-0.3977 0.3977 (  7214 PWs)   bands (ev):

   -14.7115 -14.7115 -14.6992 -14.6992 -14.6089 -14.6089 -14.5544 -14.5544
   -14.5399 -14.5399 -14.4464 -14.4464 -14.4393 -14.4393 -14.4166 -14.4166
   -14.3128 -14.3128 -14.3021 -14.3021  -1.5575  -1.5575   0.9209   0.9209
     4.3320   4.3320   5.6555   5.6555   8.1451   8.1451  10.2695  10.2695
    10.8244  10.8244  12.4725  12.4725

     occupation numbers 
     1.0000   1.0000   1.0000   1.0000   1.0000   1.0000   1.0000   1.0000
     1.0000   1.0000   1.0000   1.0000   1.0000   1.0000   1.0000   1.0000
     1.0000   1.0000   1.0000   1.0000   1.0000   1.0000   1.0000   1.0000
     1.0000   1.0000   1.0000   1.0000   0.0000   0.0000   0.0000   0.0000
     0.0000   0.0000   0.0000   0.0000

          k =-0.0884-0.3536 0.3536 (  7211 PWs)   bands (ev):

   -14.7075 -14.7075 -14.6988 -14.6988 -14.6132 -14.6132 -14.5647 -14.5647
   -14.5416 -14.5416 -14.4467 -14.4467 -14.4221 -14.4221 -14.4175 -14.4175
   -14.3131 -14.3131 -14.3073 -14.3073  -1.8193  -1.8193   1.3399   1.3399
     4.3865   4.3865   5.8481   5.8481   8.1812   8.1812  10.3789  10.3789
    10.5993  10.5993  11.8030  11.8030

     occupation numbers 
     1.0000   1.0000   1.0000   1.0000   1.0000   1.0000   1.0000   1.0000
     1.0000   1.0000   1.0000   1.0000   1.0000   1.0000   1.0000   1.0000
     1.0000   1.0000   1.0000   1.0000   1.0000   1.0000   1.0000   1.0000
     1.0000   1.0000   1.0000   1.0000   0.0000   0.0000   0.0000   0.0000
     0.0000   0.0000   0.0000   0.0000

          k =-0.0442-0.3094 0.3094 (  7217 PWs)   bands (ev):

   -14.7011 -14.7011 -14.6968 -14.6968 -14.6226 -14.6226 -14.5734 -14.5734
   -14.5483 -14.5483 -14.4417 -14.4417 -14.4155 -14.4155 -14.4041 -14.4041
   -14.3154 -14.3154 -14.3152 -14.3152  -2.1152  -2.1152   1.8720   1.8720
     4.5585   4.5585   6.0720   6.0720   8.2060   8.2060  10.3165  10.3165
    10.4100  10.4100  11.1895  11.1895

     occupation numbers 
     1.0000   1.0000   1.0000   1.0000   1.0000   1.0000   1.0000   1.0000
     1.0000   1.0000   1.0000   1.0000   1.0000   1.0000   1.0000   1.0000
     1.0000   1.0000   1.0000   1.0000   1.0000   1.0000   1.0000   1.0000
     1.0000   1.0000   1.0000   1.0000   0.0000   0.0000   0.0000   0.0000
     0.0000   0.0000   0.0000   0.0000

          k = 0.0000-0.2652 0.2652 (  7225 PWs)   bands (ev):

   -14.6933 -14.6933 -14.6930 -14.6930 -14.6345 -14.6345 -14.5806 -14.5806
   -14.5588 -14.5588 -14.4327 -14.4327 -14.4111 -14.4111 -14.3875 -14.3875
   -14.3257 -14.3257 -14.3190 -14.3190  -2.3883  -2.3883   2.4274   2.4274
     4.8728   4.8728   6.2994   6.2994   8.1492   8.1492   9.9994   9.9994
    10.1534  10.1534  10.9998  10.9998

     occupation numbers 
     1.0000   1.0000   1.0000   1.0000   1.0000   1.0000   1.0000   1.0000
     1.0000   1.0000   1.0000   1.0000   1.0000   1.0000   1.0000   1.0000
     1.0000   1.0000   1.0000   1.0000   1.0000   1.0000   1.0000   1.0000
     1.0000   1.0000   1.0000   1.0000   0.0000   0.0000   0.0000   0.0000
     0.0000   0.0000   0.0000   0.0000

          k = 0.3536 0.0000 0.0000 (  7187 PWs)   bands (ev):

   -14.6847 -14.6847 -14.6847 -14.6847 -14.6632 -14.6632 -14.5774 -14.5774
   -14.5395 -14.5395 -14.4694 -14.4694 -14.4014 -14.4014 -14.3470 -14.3470
   -14.3346 -14.3346 -14.3346 -14.3346  -2.4523  -2.4523   2.7080   2.7080
     5.4757   5.4757   5.4757   5.4757   7.9541   7.9541   8.8885   8.8885
    11.4722  11.4722  11.4722  11.4722

     occupation numbers 
     1.0000   1.0000   1.0000   1.0000   1.0000   1.0000   1.0000   1.0000
     1.0000   1.0000   1.0000   1.0000   1.0000   1.0000   1.0000   1.0000
     1.0000   1.0000   1.0000   1.0000   1.0000   1.0000   1.0000   1.0000
     1.0000   1.0000   1.0000   1.0000   0.0000   0.0000   0.0000   0.0000
     0.0000   0.0000   0.0000   0.0000

          k = 0.3977 0.0442-0.0442 (  7226 PWs)   bands (ev):

   -14.6915 -14.6915 -14.6889 -14.6889 -14.6551 -14.6551 -14.5679 -14.5679
   -14.5263 -14.5263 -14.4836 -14.4836 -14.4109 -14.4109 -14.3572 -14.3572
   -14.3286 -14.3286 -14.3249 -14.3249  -2.2409  -2.2409   2.2417   2.2417
     5.2249   5.2249   5.3123   5.3123   7.9781   7.9781   8.8540   8.8540
    11.6117  11.6117  11.8138  11.8138

     occupation numbers 
     1.0000   1.0000   1.0000   1.0000   1.0000   1.0000   1.0000   1.0000
     1.0000   1.0000   1.0000   1.0000   1.0000   1.0000   1.0000   1.0000
     1.0000   1.0000   1.0000   1.0000   1.0000   1.0000   1.0000   1.0000
     1.0000   1.0000   1.0000   1.0000   0.0000   0.0000   0.0000   0.0000
     0.0000   0.0000   0.0000   0.0000

          k = 0.4419 0.0884-0.0884 (  7204 PWs)   bands (ev):

   -14.7002 -14.7002 -14.6928 -14.6928 -14.6418 -14.6418 -14.5578 -14.5578
   -14.5165 -14.5165 -14.4932 -14.4932 -14.4214 -14.4214 -14.3723 -14.3723
   -14.3227 -14.3227 -14.3140 -14.3140  -1.9770  -1.9770   1.7288   1.7288
     4.8878   4.8878   5.2064   5.2064   8.1243   8.1243   8.9880   8.9880
    11.4810  11.4810  11.9779  11.9779

     occupation numbers 
     1.0000   1.0000   1.0000   1.0000   1.0000   1.0000   1.0000   1.0000
     1.0000   1.0000   1.0000   1.0000   1.0000   1.0000   1.0000   1.0000
     1.0000   1.0000   1.0000   1.0000   1.0000   1.0000   1.0000   1.0000
     1.0000   1.0000   1.0000   1.0000   0.0000   0.0000   0.0000   0.0000
     0.0000   0.0000   0.0000   0.0000

          k = 0.4861 0.1326-0.1326 (  7211 PWs)   bands (ev):

   -14.7083 -14.7083 -14.6962 -14.6962 -14.6268 -14.6268 -14.5478 -14.5478
   -14.5130 -14.5130 -14.4958 -14.4958 -14.4323 -14.4323 -14.3888 -14.3888
   -14.3176 -14.3176 -14.3047 -14.3047  -1.6801  -1.6801   1.2285   1.2285
     4.5493   4.5493   5.1637   5.1637   8.1668   8.1668   9.4481   9.4481
    11.3551  11.3551  11.9684  11.9684

     occupation numbers 
     1.0000   1.0000   1.0000   1.0000   1.0000   1.0000   1.0000   1.0000
     1.0000   1.0000   1.0000   1.0000   1.0000   1.0000   1.0000   1.0000
     1.0000   1.0000   1.0000   1.0000   1.0000   1.0000   1.0000   1.0000
     1.0000   1.0000   1.0000   1.0000   0.0000   0.0000   0.0000   0.0000
     0.0000   0.0000   0.0000   0.0000

          k =-0.1768-0.5303 0.5303 (  7203 PWs)   bands (ev):

   -14.7145 -14.7145 -14.6990 -14.6990 -14.6131 -14.6131 -14.5383 -14.5383
   -14.5153 -14.5153 -14.4920 -14.4920 -14.4431 -14.4431 -14.4036 -14.4036
   -14.3136 -14.3136 -14.2978 -14.2978  -1.3961  -1.3961   0.8088   0.8088
     4.2665   4.2665   5.1861   5.1861   8.1631   8.1631  10.0685  10.0685
    11.3377  11.3377  11.8440  11.8440

     occupation numbers 
     1.0000   1.0000   1.0000   1.0000   1.0000   1.0000   1.0000   1.0000
     1.0000   1.0000   1.0000   1.0000   1.0000   1.0000   1.0000   1.0000
[...]

     occupation numbers 
     1.0000   1.0000   1.0000   1.0000   1.0000   1.0000   1.0000   1.0000
     1.0000   1.0000   1.0000   1.0000   1.0000   1.0000   1.0000   1.0000
     1.0000   1.0000   1.0000   1.0000   1.0000   1.0000   1.0000   1.0000
     1.0000   1.0000   1.0000   1.0000   0.0000   0.0000   0.0000   0.0000
     0.0000   0.0000   0.0000   0.0000

          k =-0.1326-0.3977 0.5745 (  7218 PWs)   bands (ev):

   -14.7183 -14.7183 -14.7057 -14.7057 -14.5927 -14.5927 -14.5326 -14.5326
   -14.5123 -14.5123 -14.4893 -14.4893 -14.4552 -14.4552 -14.4239 -14.4239
   -14.3060 -14.3060 -14.2935 -14.2935  -1.1393  -1.1393   0.5114   0.5114
     4.0322   4.0322   4.9935   4.9935   8.8402   8.8402  10.0815  10.0815
    11.3592  11.3592  12.0449  12.0449

     occupation numbers 
     1.0000   1.0000   1.0000   1.0000   1.0000   1.0000   1.0000   1.0000
     1.0000   1.0000   1.0000   1.0000   1.0000   1.0000   1.0000   1.0000
     1.0000   1.0000   1.0000   1.0000   1.0000   1.0000   1.0000   1.0000
     1.0000   1.0000   1.0000   1.0000   0.0000   0.0000   0.0000   0.0000
     0.0000   0.0000   0.0000   0.0000

          k =-0.0884-0.3536 0.5303 (  7222 PWs)   bands (ev):

   -14.7183 -14.7183 -14.7057 -14.7057 -14.5921 -14.5921 -14.5355 -14.5355
   -14.5137 -14.5137 -14.4852 -14.4852 -14.4545 -14.4545 -14.4250 -14.4250
   -14.3058 -14.3058 -14.2938 -14.2938  -1.1939  -1.1939   0.5807   0.5807
     3.9992   3.9992   5.0626   5.0626   8.8856   8.8856  10.0731  10.0731
    11.4231  11.4231  12.0061  12.0061

     occupation numbers 
     1.0000   1.0000   1.0000   1.0000   1.0000   1.0000   1.0000   1.0000
     1.0000   1.0000   1.0000   1.0000   1.0000   1.0000   1.0000   1.0000
     1.0000   1.0000   1.0000   1.0000   1.0000   1.0000   1.0000   1.0000
     1.0000   1.0000   1.0000   1.0000   0.0000   0.0000   0.0000   0.0000
     0.0000   0.0000   0.0000   0.0000

          k =-0.0442-0.3094 0.4861 (  7219 PWs)   bands (ev):

   -14.7149 -14.7149 -14.7047 -14.7047 -14.5990 -14.5990 -14.5460 -14.5460
   -14.5160 -14.5160 -14.4829 -14.4829 -14.4415 -14.4415 -14.4206 -14.4206
   -14.3070 -14.3070 -14.2979 -14.2979  -1.4376  -1.4376   0.9001   0.9001
     4.0704   4.0704   5.2052   5.2052   8.9376   8.9376   9.9575   9.9575
    10.8446  10.8446  12.2328  12.2328

     occupation numbers 
     1.0000   1.0000   1.0000   1.0000   1.0000   1.0000   1.0000   1.0000
     1.0000   1.0000   1.0000   1.0000   1.0000   1.0000   1.0000   1.0000
     1.0000   1.0000   1.0000   1.0000   1.0000   1.0000   1.0000   1.0000
     1.0000   1.0000   1.0000   1.0000   0.0000   0.0000   0.0000   0.0000
     0.0000   0.0000   0.0000   0.0000

          k = 0.0000-0.2652 0.4419 (  7224 PWs)   bands (ev):

   -14.7088 -14.7088 -14.7023 -14.7023 -14.6118 -14.6118 -14.5568 -14.5568
   -14.5235 -14.5235 -14.4769 -14.4769 -14.4267 -14.4267 -14.4100 -14.4100
   -14.3097 -14.3097 -14.3054 -14.3054  -1.7357  -1.7357   1.3193   1.3193
     4.2653   4.2653   5.3956   5.3956   8.9373   8.9373   9.6032   9.6032
    10.6680  10.6681  12.0063  12.0063

     occupation numbers 
     1.0000   1.0000   1.0000   1.0000   1.0000   1.0000   1.0000   1.0000
     1.0000   1.0000   1.0000   1.0000   1.0000   1.0000   1.0000   1.0000
     1.0000   1.0000   1.0000   1.0000   1.0000   1.0000   1.0000   1.0000
     1.0000   1.0000   1.0000   1.0000   0.0000   0.0000   0.0000   0.0000
     0.0000   0.0000   0.0000   0.0000

          k =-0.1768-0.5303 0.7071 (  7209 PWs)   bands (ev):

   -14.7070 -14.7070 -14.7052 -14.7052 -14.6154 -14.6154 -14.5372 -14.5372
   -14.5183 -14.5183 -14.4919 -14.4919 -14.4430 -14.4430 -14.3995 -14.3995
   -14.3070 -14.3070 -14.3057 -14.3057  -1.4442  -1.4442   0.9377   0.9377
     4.4359   4.4359   4.8666   4.8666   8.5816   8.5816   8.9372   8.9372
    11.3564  11.3564  12.9676  12.9676

     occupation numbers 
     1.0000   1.0000   1.0000   1.0000   1.0000   1.0000   1.0000   1.0000
     1.0000   1.0000   1.0000   1.0000   1.0000   1.0000   1.0000   1.0000
     1.0000   1.0000   1.0000   1.0000   1.0000   1.0000   1.0000   1.0000
     1.0000   1.0000   1.0000   1.0000   0.0000   0.0000   0.0000   0.0000
     0.0000   0.0000   0.0000   0.0000

          k =-0.1326-0.4861 0.6629 (  7205 PWs)   bands (ev):

   -14.7138 -14.7138 -14.7075 -14.7075 -14.5981 -14.5981 -14.5271 -14.5271
   -14.5229 -14.5229 -14.4858 -14.4858 -14.4553 -14.4553 -14.4168 -14.4168
   -14.3041 -14.3041 -14.2979 -14.2979  -1.1403  -1.1403   0.5537   0.5537
     4.2061   4.2061   4.7450   4.7450   8.7477   8.7477   9.4121   9.4121
    11.1816  11.1816  12.9208  12.9208

     occupation numbers 
     1.0000   1.0000   1.0000   1.0000   1.0000   1.0000   1.0000   1.0000
     1.0000   1.0000   1.0000   1.0000   1.0000   1.0000   1.0000   1.0000
     1.0000   1.0000   1.0000   1.0000   1.0000   1.0000   1.0000   1.0000
     1.0000   1.0000   1.0000   1.0000   0.0000   0.0000   0.0000   0.0000
     0.0000   0.0000   0.0000   0.0000

          k =-0.0884-0.4419 0.6187 (  7214 PWs)   bands (ev):

   -14.7188 -14.7188 -14.7085 -14.7085 -14.5855 -14.5855 -14.5227 -14.5227
   -14.5153 -14.5153 -14.4878 -14.4878 -14.4664 -14.4664 -14.4286 -14.4286
   -14.3027 -14.3027 -14.2925 -14.2925  -0.9024  -0.9024   0.2781   0.2781
     4.0082   4.0082   4.7355   4.7355   8.8030   8.8030  10.1392  10.1392
    11.0781  11.0781  12.3410  12.3410

     occupation numbers 
     1.0000   1.0000   1.0000   1.0000   1.0000   1.0000   1.0000   1.0000
     1.0000   1.0000   1.0000   1.0000   1.0000   1.0000   1.0000   1.0000
     1.0000   1.0000   1.0000   1.0000   1.0000   1.0000   1.0000   1.0000
     1.0000   1.0000   1.0000   1.0000   0.0000   0.0000   0.0000   0.0000
     0.0000   0.0000   0.0000   0.0000

          k =-0.0442-0.3977 0.5745 (  7217 PWs)   bands (ev):

   -14.7207 -14.7207 -14.7085 -14.7085 -14.5823 -14.5823 -14.5193 -14.5193
   -14.5071 -14.5071 -14.4954 -14.4954 -14.4708 -14.4708 -14.4315 -14.4315
   -14.3026 -14.3026 -14.2907 -14.2907  -0.9044  -0.9044   0.2829   0.2829
     3.8955   3.8955   4.8245   4.8245   8.8801   8.8801  10.6076  10.6076
    11.2944  11.2944  11.6116  11.6116

     occupation numbers 
     1.0000   1.0000   1.0000   1.0000   1.0000   1.0000   1.0000   1.0000
     1.0000   1.0000   1.0000   1.0000   1.0000   1.0000   1.0000   1.0000
     1.0000   1.0000   1.0000   1.0000   1.0000   1.0000   1.0000   1.0000
     1.0000   1.0000   1.0000   1.0000   0.0000   0.0000   0.0000   0.0000
     0.0000   0.0000   0.0000   0.0000

          k = 0.0000-0.3536 0.5303 (  7218 PWs)   bands (ev):

   -14.7193 -14.7193 -14.7074 -14.7074 -14.5874 -14.5874 -14.5312 -14.5312
   -14.5045 -14.5045 -14.4947 -14.4947 -14.4602 -14.4602 -14.4281 -14.4281
   -14.3039 -14.3039 -14.2926 -14.2926  -1.1399  -1.1399   0.5520   0.5520
     3.9079   3.9079   4.9900   4.9900   8.9585   8.9585  10.4657  10.4657
    10.9174  10.9174  12.0972  12.0972

     occupation numbers 
     1.0000   1.0000   1.0000   1.0000   1.0000   1.0000   1.0000   1.0000
     1.0000   1.0000   1.0000   1.0000   1.0000   1.0000   1.0000   1.0000
     1.0000   1.0000   1.0000   1.0000   1.0000   1.0000   1.0000   1.0000
     1.0000   1.0000   1.0000   1.0000   0.0000   0.0000   0.0000   0.0000
     0.0000   0.0000   0.0000   0.0000

          k =-0.0884-0.5303 0.7071 (  7204 PWs)   bands (ev):

   -14.7105 -14.7105 -14.7093 -14.7093 -14.5963 -14.5963 -14.5467 -14.5467
   -14.5143 -14.5143 -14.4658 -14.4658 -14.4654 -14.4654 -14.4178 -14.4178
   -14.3019 -14.3019 -14.3007 -14.3007  -0.9178  -0.9178   0.2862   0.2862
     4.3624   4.3624   4.5765   4.5765   8.5500   8.5500   8.7583   8.7583
    12.0301  12.0301  13.2564  13.2564

     occupation numbers 
     1.0000   1.0000   1.0000   1.0000   1.0000   1.0000   1.0000   1.0000
     1.0000   1.0000   1.0000   1.0000   1.0000   1.0000   1.0000   1.0000
     1.0000   1.0000   1.0000   1.0000   1.0000   1.0000   1.0000   1.0000
     1.0000   1.0000   1.0000   1.0000   0.0000   0.0000   0.0000   0.0000
     0.0000   0.0000   0.0000   0.0000

          k =-0.0442-0.4861 0.6629 (  7211 PWs)   bands (ev):

   -14.7161 -14.7161 -14.7104 -14.7104 -14.5796 -14.5796 -14.5475 -14.5475
   -14.5040 -14.5040 -14.4782 -14.4782 -14.4635 -14.4635 -14.4337 -14.4337
   -14.3005 -14.3005 -14.2948 -14.2948  -0.6341  -0.6341  -0.0139  -0.0139
     4.1523   4.1523   4.5351   4.5351   8.6953   8.6953   9.3596   9.3596
    11.8474  11.8474  12.5579  12.5580

     occupation numbers 
     1.0000   1.0000   1.0000   1.0000   1.0000   1.0000   1.0000   1.0000
     1.0000   1.0000   1.0000   1.0000   1.0000   1.0000   1.0000   1.0000
     1.0000   1.0000   1.0000   1.0000   1.0000   1.0000   1.0000   1.0000
     1.0000   1.0000   1.0000   1.0000   0.0000   0.0000   0.0000   0.0000
     0.0000   0.0000   0.0000   0.0000

          k = 0.0000-0.4419 0.6187 (  7217 PWs)   bands (ev):

   -14.7200 -14.7200 -14.7100 -14.7100 -14.5766 -14.5766 -14.5315 -14.5315
   -14.5031 -14.5031 -14.4824 -14.4824 -14.4768 -14.4768 -14.4361 -14.4361
   -14.3008 -14.3008 -14.2910 -14.2910  -0.6363  -0.6363  -0.0024  -0.0024
     3.9594   3.9594   4.6398   4.6398   8.7827   8.7827  10.1776  10.1776
    11.6890  11.6890  11.7002  11.7002

     occupation numbers 
     1.0000   1.0000   1.0000   1.0000   1.0000   1.0000   1.0000   1.0000
     1.0000   1.0000   1.0000   1.0000   1.0000   1.0000   1.0000   1.0000
     1.0000   1.0000   1.0000   1.0000   1.0000   1.0000   1.0000   1.0000
     1.0000   1.0000   1.0000   1.0000   0.0000   0.0000   0.0000   0.0000
     0.0000   0.0000   0.0000   0.0000

          k =-0.7071 0.1768 0.0000 (  7202 PWs)   bands (ev):

   -14.7112 -14.7112 -14.7112 -14.7112 -14.5737 -14.5737 -14.5725 -14.5725
   -14.4929 -14.4929 -14.4871 -14.4871 -14.4408 -14.4408 -14.4396 -14.4396
   -14.2995 -14.2995 -14.2995 -14.2995  -0.3375  -0.3375  -0.3360  -0.3360
     4.4081   4.4081   4.4081   4.4081   8.6131   8.6131   8.6134   8.6134
    12.7525  12.7525  12.7525  12.7525

     occupation numbers 
     1.0000   1.0000   1.0000   1.0000   1.0000   1.0000   1.0000   1.0000
     1.0000   1.0000   1.0000   1.0000   1.0000   1.0000   1.0000   1.0000
     1.0000   1.0000   1.0000   1.0000   1.0000   1.0000   1.0000   1.0000
     1.0000   1.0000   1.0000   1.0000   0.0000   0.0000   0.0000   0.0000
     0.0000   0.0000   0.0000   0.0000

          k =-0.1768-0.4419 0.7071 (  7218 PWs)   bands (ev):

   -14.7139 -14.7139 -14.7077 -14.7077 -14.5975 -14.5975 -14.5375 -14.5375
   -14.5058 -14.5058 -14.4989 -14.4989 -14.4469 -14.4469 -14.4192 -14.4192
   -14.3040 -14.3040 -14.2985 -14.2985  -1.3106  -1.3106   0.7649   0.7649
     4.1272   4.1272   4.9027   4.9027   9.3366   9.3366   9.4666   9.4666
    10.6216  10.6216  12.6970  12.6971

     occupation numbers 
     1.0000   1.0000   1.0000   1.0000   1.0000   1.0000   1.0000   1.0000
     1.0000   1.0000   1.0000   1.0000   1.0000   1.0000   1.0000   1.0000
     1.0000   1.0000   1.0000   1.0000   1.0000   1.0000   1.0000   1.0000
     1.0000   1.0000   1.0000   1.0000   0.0000   0.0000   0.0000   0.0000
     0.0000   0.0000   0.0000   0.0000

          k =-0.1326-0.3977 0.6629 (  7217 PWs)   bands (ev):

   -14.7182 -14.7182 -14.7097 -14.7097 -14.5839 -14.5839 -14.5271 -14.5271
   -14.5098 -14.5098 -14.4936 -14.4936 -14.4611 -14.4611 -14.4307 -14.4307
   -14.3016 -14.3016 -14.2934 -14.2934  -1.0270  -1.0270   0.4259   0.4259
     3.9998   3.9998   4.7473   4.7473   9.3619   9.3619   9.9596   9.9596
    10.7330  10.7330  12.2271  12.2271

     occupation numbers 
     1.0000   1.0000   1.0000   1.0000   1.0000   1.0000   1.0000   1.0000
     1.0000   1.0000   1.0000   1.0000   1.0000   1.0000   1.0000   1.0000
     1.0000   1.0000   1.0000   1.0000   1.0000   1.0000   1.0000   1.0000
     1.0000   1.0000   1.0000   1.0000   0.0000   0.0000   0.0000   0.0000
     0.0000   0.0000   0.0000   0.0000

          k =-0.0884-0.3536 0.6187 (  7222 PWs)   bands (ev):

   -14.7198 -14.7198 -14.7103 -14.7103 -14.5785 -14.5785 -14.5232 -14.5232
   -14.5078 -14.5078 -14.4942 -14.4942 -14.4676 -14.4676 -14.4349 -14.4349
   -14.3009 -14.3009 -14.2915 -14.2915  -0.8890  -0.8890   0.2684   0.2684
     3.9594   3.9594   4.6905   4.6905   9.3615   9.3615  10.0836  10.0836
    11.2561  11.2561  11.5467  11.5467

     occupation numbers 
     1.0000   1.0000   1.0000   1.0000   1.0000   1.0000   1.0000   1.0000
     1.0000   1.0000   1.0000   1.0000   1.0000   1.0000   1.0000   1.0000
     1.0000   1.0000   1.0000   1.0000   1.0000   1.0000   1.0000   1.0000
     1.0000   1.0000   1.0000   1.0000   0.0000   0.0000   0.0000   0.0000
     0.0000   0.0000   0.0000   0.0000

          k =-0.0884-0.4419 0.7071 (  7218 PWs)   bands (ev):

   -14.7162 -14.7162 -14.7125 -14.7125 -14.5790 -14.5790 -14.5315 -14.5315
   -14.5158 -14.5158 -14.4765 -14.4765 -14.4692 -14.4692 -14.4343 -14.4343
   -14.2986 -14.2986 -14.2950 -14.2950  -0.8344  -0.8344   0.2160   0.2160
     4.1174   4.1174   4.5090   4.5090   9.4080   9.4080   9.4512   9.4512
    11.0021  11.0021  12.3955  12.3955

     occupation numbers 
     1.0000   1.0000   1.0000   1.0000   1.0000   1.0000   1.0000   1.0000
     1.0000   1.0000   1.0000   1.0000   1.0000   1.0000   1.0000   1.0000
     1.0000   1.0000   1.0000   1.0000   1.0000   1.0000   1.0000   1.0000
     1.0000   1.0000   1.0000   1.0000   0.0000   0.0000   0.0000   0.0000
     0.0000   0.0000   0.0000   0.0000

          k =-0.0442-0.3977 0.6629 (  7213 PWs)   bands (ev):

   -14.7189 -14.7189 -14.7137 -14.7137 -14.5666 -14.5666 -14.5331 -14.5331
   -14.5069 -14.5069 -14.4821 -14.4821 -14.4730 -14.4730 -14.4446 -14.4446
   -14.2972 -14.2972 -14.2921 -14.2921  -0.6145  -0.6145  -0.0133  -0.0133
     4.0359   4.0359   4.4287   4.4287   9.4883   9.4883  10.1597  10.1597
    10.9215  10.9215  11.5375  11.5375

     occupation numbers 
     1.0000   1.0000   1.0000   1.0000   1.0000   1.0000   1.0000   1.0000
     1.0000   1.0000   1.0000   1.0000   1.0000   1.0000   1.0000   1.0000
     1.0000   1.0000   1.0000   1.0000   1.0000   1.0000   1.0000   1.0000
     1.0000   1.0000   1.0000   1.0000   0.0000   0.0000   0.0000   0.0000
     0.0000   0.0000   0.0000   0.0000

          k =-0.0000-0.3536 0.6187 (  7212 PWs)   bands (ev):

   -14.7197 -14.7197 -14.7127 -14.7127 -14.5704 -14.5704 -14.5229 -14.5229
   -14.5131 -14.5131 -14.4816 -14.4816 -14.4770 -14.4770 -14.4413 -14.4413
   -14.2983 -14.2983 -14.2914 -14.2914  -0.7364  -0.7364   0.1166   0.1166
     3.9705   3.9705   4.5327   4.5327   9.5392   9.5392  10.3408  10.3408
    10.8108  10.8108  11.4417  11.4417

     occupation numbers 
     1.0000   1.0000   1.0000   1.0000   1.0000   1.0000   1.0000   1.0000
     1.0000   1.0000   1.0000   1.0000   1.0000   1.0000   1.0000   1.0000
     1.0000   1.0000   1.0000   1.0000   1.0000   1.0000   1.0000   1.0000
     1.0000   1.0000   1.0000   1.0000   0.0000   0.0000   0.0000   0.0000
     0.0000   0.0000   0.0000   0.0000

          k =-0.7071 0.2652 0.0000 (  7204 PWs)   bands (ev):

   -14.7156 -14.7156 -14.7156 -14.7156 -14.5574 -14.5574 -14.5559 -14.5559
   -14.4954 -14.4954 -14.4897 -14.4897 -14.4548 -14.4548 -14.4532 -14.4532
   -14.2953 -14.2953 -14.2952 -14.2952  -0.3217  -0.3217  -0.3201  -0.3201
     4.2440   4.2440   4.2441   4.2441   9.4189   9.4189   9.4192   9.4192
    11.6712  11.6712  11.6714  11.6714

     occupation numbers 
     1.0000   1.0000   1.0000   1.0000   1.0000   1.0000   1.0000   1.0000
     1.0000   1.0000   1.0000   1.0000   1.0000   1.0000   1.0000   1.0000
     1.0000   1.0000   1.0000   1.0000   1.0000   1.0000   1.0000   1.0000
     1.0000   1.0000   1.0000   1.0000   0.0000   0.0000   0.0000   0.0000
     0.0000   0.0000   0.0000   0.0000

          k =-0.7071 0.3536 0.0000 (  7228 PWs)   bands (ev):

   -14.7173 -14.7173 -14.7172 -14.7172 -14.5493 -14.5493 -14.5474 -14.5474
   -14.4978 -14.4978 -14.4920 -14.4920 -14.4609 -14.4609 -14.4590 -14.4590
   -14.2937 -14.2937 -14.2936 -14.2936  -0.3150  -0.3150  -0.3134  -0.3134
     4.1817   4.1817   4.1818   4.1818  10.0849  10.0849  10.0855  10.0855
    10.9082  10.9082  10.9087  10.9087

     occupation numbers 
     1.0000   1.0000   1.0000   1.0000   1.0000   1.0000   1.0000   1.0000
     1.0000   1.0000   1.0000   1.0000   1.0000   1.0000   1.0000   1.0000
     1.0000   1.0000   1.0000   1.0000   1.0000   1.0000   1.0000   1.0000
     1.0000   1.0000   1.0000   1.0000   0.0000   0.0000   0.0000   0.0000
     0.0000   0.0000   0.0000   0.0000

     the Fermi energy is     6.9075 ev

!    total energy              =    -884.12283386 Ry
     Harris-Foulkes estimate   =    -884.12283385 Ry
     estimated scf accuracy    <       0.00000048 Ry

     total all-electron energy =    -24709.378407 Ry

     The total energy is the sum of the following terms:

     one-electron contribution =    -154.08758196 Ry
     hartree contribution      =      95.64214467 Ry
     xc contribution           =     -96.23721251 Ry
     ewald contribution        =    -167.52979533 Ry
     one-center paw contrib.   =    -561.91038857 Ry
     smearing contrib. (-TS)   =      -0.00000015 Ry

     convergence has been achieved in   5 iterations

     Writing output data file Sn.save
 
     init_run     :     15.10s CPU     16.97s WALL (       1 calls)
     electrons    :    273.10s CPU    292.11s WALL (       1 calls)

     Called by init_run:
     wfcinit      :     13.63s CPU     14.61s WALL (       1 calls)
     potinit      :      0.29s CPU      0.34s WALL (       1 calls)

     Called by electrons:
     c_bands      :    230.19s CPU    246.49s WALL (       6 calls)
     sum_band     :     42.16s CPU     44.71s WALL (       6 calls)
     v_of_rho     :      0.11s CPU      0.13s WALL (       6 calls)
     v_h          :      0.01s CPU      0.01s WALL (       6 calls)
     v_xc         :      0.10s CPU      0.11s WALL (       6 calls)
     newd         :      0.13s CPU      0.16s WALL (       6 calls)
     PAW_pot      :      0.75s CPU      0.84s WALL (       6 calls)
     mix_rho      :      0.03s CPU      0.05s WALL (       6 calls)

     Called by c_bands:
     init_us_2    :      0.49s CPU      0.57s WALL (    1885 calls)
     cegterg      :    225.86s CPU    241.87s WALL (     870 calls)

     Called by sum_band:
     sum_band:bec :      0.13s CPU      0.13s WALL (     870 calls)
     addusdens    :      0.14s CPU      0.17s WALL (       6 calls)

     Called by *egterg:
     h_psi        :    199.08s CPU    211.88s WALL (    3099 calls)
     s_psi        :      2.85s CPU      2.88s WALL (    3099 calls)
     g_psi        :      0.61s CPU      0.61s WALL (    2084 calls)
     cdiaghg      :     11.67s CPU     11.92s WALL (    2809 calls)
     cegterg:over :      9.60s CPU      9.69s WALL (    2084 calls)
     cegterg:upda :      4.90s CPU      4.93s WALL (    2084 calls)
     cegterg:last :      2.74s CPU      2.75s WALL (     870 calls)

     Called by h_psi:
     h_psi:vloc   :    191.24s CPU    203.88s WALL (    3099 calls)
     h_psi:vnl    :      7.26s CPU      7.39s WALL (    3099 calls)
     add_vuspsi   :      2.92s CPU      2.94s WALL (    3099 calls)

     General routines
     calbec       :      5.81s CPU      5.95s WALL (    3969 calls)
     fft          :      0.37s CPU      0.75s WALL (     116 calls)
     fftw         :    216.04s CPU    230.23s WALL (  394356 calls)
     davcio       :      0.08s CPU      0.57s WALL (     145 calls)
 
     Parallel routines
     fft_scatter  :    141.57s CPU    151.08s WALL (  394472 calls)

     PAW routines
     PAW_pot      :      0.75s CPU      0.84s WALL (       6 calls)
     PAW_symme    :      0.01s CPU      0.01s WALL (      12 calls)
 
     PWSCF        :  4m49.55s CPU     5m12.12s WALL

 
   This run was terminated on:  22:59:51  16Mar2020            

=------------------------------------------------------------------------------=
   JOB DONE.
=------------------------------------------------------------------------------=
