
     Program PWSCF v.5.4.0 starts on 21Feb2020 at  0:51:58 

     This program is part of the open-source Quantum ESPRESSO suite
     for quantum simulation of materials; please cite
         "P. Giannozzi et al., J. Phys.:Condens. Matter 21 395502 (2009);
          URL http://www.quantum-espresso.org", 
     in publications or presentations arising from this work. More details at
     http://www.quantum-espresso.org/quote

     Parallel version (MPI & OpenMP), running on      16 processor cores
     Number of MPI processes:                16
     Threads/MPI process:                     1
     R & G space division:  proc/nbgrp/npool/nimage =      16
     Waiting for input...
     Reading input from standard input
Warning: card &IONS ignored
Warning: card / ignored
Warning: card &CELL ignored
Warning: card / ignored

     Current dimensions of program PWSCF are:
     Max number of different atomic species (ntypx) = 10
     Max number of k-points (npk) =  40000
     Max angular momentum in pseudopotentials (lmaxx) =  3

     Subspace diagonalization in iterative solution of the eigenvalue problem:
     a serial algorithm will be used

 
     Parallelization info
     --------------------
     sticks:   dense  smooth     PW     G-vecs:    dense   smooth      PW
     Min         162     162     46                 5516     5516     831
     Max         165     165     47                 5518     5518     834
     Sum        2611    2611    745                88275    88275   13323
 

     Title: 
     Sn                                                                         


     bravais-lattice index     =            0
     lattice parameter (alat)  =       8.8993  a.u.
     unit-cell volume          =     498.3785 (a.u.)^3
     number of atoms/cell      =            2
     number of atomic types    =            1
     number of electrons       =        28.00
     number of Kohn-Sham states=           18
     kinetic-energy cutoff     =     120.0000  Ry
     charge density cutoff     =     480.0000  Ry
     convergence threshold     =      1.0E-06
     mixing beta               =       0.7000
     number of iterations used =            8  plain     mixing
     Exchange-correlation      = PBE ( 1  4  3  4 0 0)

     celldm(1)=   8.899346  celldm(2)=   0.000000  celldm(3)=   0.000000
     celldm(4)=   0.000000  celldm(5)=   0.000000  celldm(6)=   0.000000

     crystal axes: (cart. coord. in units of alat)
               a(1) = (   0.000000   0.707107   0.707107 )  
               a(2) = (   0.707107   0.000000   0.707107 )  
               a(3) = (   0.707107   0.707107   0.000000 )  

     reciprocal axes: (cart. coord. in units 2 pi/alat)
               b(1) = ( -0.707107  0.707107  0.707107 )  
               b(2) = (  0.707107 -0.707107  0.707107 )  
               b(3) = (  0.707107  0.707107 -0.707107 )  


     PseudoPot. # 1 for Sn read from file:
     ../PseudopotentialDatabase/Sn_ONCV_PBE_FR-1.1.upf
     MD5 check sum: 6dd2180f739ea5ae1610ead5e1628a0e
     Pseudo is Norm-conserving, Zval = 14.0
     Generated using ONCVPSP code by D. R. Hamann
     Using radial grid of  602 points,  6 beta functions with: 
                l(1) =   0
                l(2) =   0
                l(3) =   1
                l(4) =   1
                l(5) =   2
                l(6) =   2

     atomic species   valence    mass     pseudopotential
        Sn            14.00   118.71000     Sn( 1.00)

     48 Sym. Ops., with inversion, found (24 have fractional translation)


                                    s                        frac. trans.

      isym =  1     identity                                     

 cryst.   s( 1) = (     1          0          0      )
                  (     0          1          0      )
                  (     0          0          1      )

 cart.    s( 1) = (  1.0000000  0.0000000  0.0000000 )
                  (  0.0000000  1.0000000  0.0000000 )
                  (  0.0000000  0.0000000  1.0000000 )


      isym =  2     180 deg rotation - cart. axis [0,0,1]        

 cryst.   s( 2) = (     0          1         -1      )
                  (     1          0         -1      )
                  (     0          0         -1      )

 cart.    s( 2) = ( -1.0000000  0.0000000  0.0000000 )
                  (  0.0000000 -1.0000000  0.0000000 )
                  (  0.0000000  0.0000000  1.0000000 )


      isym =  3     180 deg rotation - cart. axis [0,1,0]        

 cryst.   s( 3) = (     0         -1          1      )
                  (     0         -1          0      )
                  (     1         -1          0      )

 cart.    s( 3) = ( -1.0000000  0.0000000  0.0000000 )
                  (  0.0000000  1.0000000  0.0000000 )
                  (  0.0000000  0.0000000 -1.0000000 )


      isym =  4     180 deg rotation - cart. axis [1,0,0]        

 cryst.   s( 4) = (    -1          0          0      )
                  (    -1          0          1      )
                  (    -1          1          0      )

 cart.    s( 4) = (  1.0000000  0.0000000  0.0000000 )
                  (  0.0000000 -1.0000000  0.0000000 )
                  (  0.0000000  0.0000000 -1.0000000 )


      isym =  5     180 deg rotation - cart. axis [1,1,0]        

 cryst.   s( 5) = (    -1          0          1      )    f =( -0.2500000 )
                  (     0         -1          1      )       ( -0.2500000 )
                  (     0          0          1      )       ( -0.2500000 )

 cart.    s( 5) = (  0.0000000  1.0000000  0.0000000 )    f =( -0.3535534 )
                  (  1.0000000  0.0000000  0.0000000 )       ( -0.3535534 )
                  (  0.0000000  0.0000000 -1.0000000 )       ( -0.3535534 )


      isym =  6     180 deg rotation - cart. axis [1,-1,0]       

 cryst.   s( 6) = (     0         -1          0      )    f =( -0.2500000 )
                  (    -1          0          0      )       ( -0.2500000 )
                  (     0          0         -1      )       ( -0.2500000 )

 cart.    s( 6) = (  0.0000000 -1.0000000  0.0000000 )    f =( -0.3535534 )
                  ( -1.0000000  0.0000000  0.0000000 )       ( -0.3535534 )
                  (  0.0000000  0.0000000 -1.0000000 )       ( -0.3535534 )


      isym =  7      90 deg rotation - cart. axis [0,0,-1]       

 cryst.   s( 7) = (     0          1          0      )    f =( -0.2500000 )
                  (     0          1         -1      )       ( -0.2500000 )
                  (    -1          1          0      )       ( -0.2500000 )

 cart.    s( 7) = (  0.0000000  1.0000000  0.0000000 )    f =( -0.3535534 )
                  ( -1.0000000  0.0000000  0.0000000 )       ( -0.3535534 )
                  (  0.0000000  0.0000000  1.0000000 )       ( -0.3535534 )


      isym =  8      90 deg rotation - cart. axis [0,0,1]        

 cryst.   s( 8) = (     1          0         -1      )    f =( -0.2500000 )
                  (     1          0          0      )       ( -0.2500000 )
                  (     1         -1          0      )       ( -0.2500000 )

 cart.    s( 8) = (  0.0000000 -1.0000000  0.0000000 )    f =( -0.3535534 )
                  (  1.0000000  0.0000000  0.0000000 )       ( -0.3535534 )
                  (  0.0000000  0.0000000  1.0000000 )       ( -0.3535534 )


      isym =  9     180 deg rotation - cart. axis [1,0,1]        

 cryst.   s( 9) = (    -1          1          0      )    f =( -0.2500000 )
                  (     0          1          0      )       ( -0.2500000 )
                  (     0          1         -1      )       ( -0.2500000 )

 cart.    s( 9) = (  0.0000000  0.0000000  1.0000000 )    f =( -0.3535534 )
                  (  0.0000000 -1.0000000  0.0000000 )       ( -0.3535534 )
                  (  1.0000000  0.0000000  0.0000000 )       ( -0.3535534 )


      isym = 10     180 deg rotation - cart. axis [-1,0,1]       

 cryst.   s(10) = (     0          0         -1      )    f =( -0.2500000 )
                  (     0         -1          0      )       ( -0.2500000 )
                  (    -1          0          0      )       ( -0.2500000 )

 cart.    s(10) = (  0.0000000  0.0000000 -1.0000000 )    f =( -0.3535534 )
                  (  0.0000000 -1.0000000  0.0000000 )       ( -0.3535534 )
                  ( -1.0000000  0.0000000  0.0000000 )       ( -0.3535534 )


      isym = 11      90 deg rotation - cart. axis [0,1,0]        

 cryst.   s(11) = (     0          0          1      )    f =( -0.2500000 )
                  (    -1          0          1      )       ( -0.2500000 )
                  (     0         -1          1      )       ( -0.2500000 )

 cart.    s(11) = (  0.0000000  0.0000000  1.0000000 )    f =( -0.3535534 )
                  (  0.0000000  1.0000000  0.0000000 )       ( -0.3535534 )
                  ( -1.0000000  0.0000000  0.0000000 )       ( -0.3535534 )


      isym = 12      90 deg rotation - cart. axis [0,-1,0]       

 cryst.   s(12) = (     1         -1          0      )    f =( -0.2500000 )
                  (     1          0         -1      )       ( -0.2500000 )
                  (     1          0          0      )       ( -0.2500000 )

 cart.    s(12) = (  0.0000000  0.0000000 -1.0000000 )    f =( -0.3535534 )
                  (  0.0000000  1.0000000  0.0000000 )       ( -0.3535534 )
                  (  1.0000000  0.0000000  0.0000000 )       ( -0.3535534 )


      isym = 13     180 deg rotation - cart. axis [0,1,1]        

 cryst.   s(13) = (     1          0          0      )    f =( -0.2500000 )
                  (     1         -1          0      )       ( -0.2500000 )
                  (     1          0         -1      )       ( -0.2500000 )

 cart.    s(13) = ( -1.0000000  0.0000000  0.0000000 )    f =( -0.3535534 )
                  (  0.0000000  0.0000000  1.0000000 )       ( -0.3535534 )
                  (  0.0000000  1.0000000  0.0000000 )       ( -0.3535534 )


      isym = 14     180 deg rotation - cart. axis [0,1,-1]       

 cryst.   s(14) = (    -1          0          0      )    f =( -0.2500000 )
                  (     0          0         -1      )       ( -0.2500000 )
                  (     0         -1          0      )       ( -0.2500000 )

 cart.    s(14) = ( -1.0000000  0.0000000  0.0000000 )    f =( -0.3535534 )
                  (  0.0000000  0.0000000 -1.0000000 )       ( -0.3535534 )
                  (  0.0000000 -1.0000000  0.0000000 )       ( -0.3535534 )


      isym = 15      90 deg rotation - cart. axis [-1,0,0]       

 cryst.   s(15) = (     0         -1          1      )    f =( -0.2500000 )
                  (     0          0          1      )       ( -0.2500000 )
                  (    -1          0          1      )       ( -0.2500000 )

 cart.    s(15) = (  1.0000000  0.0000000  0.0000000 )    f =( -0.3535534 )
                  (  0.0000000  0.0000000  1.0000000 )       ( -0.3535534 )
                  (  0.0000000 -1.0000000  0.0000000 )       ( -0.3535534 )


      isym = 16      90 deg rotation - cart. axis [1,0,0]        

 cryst.   s(16) = (     0          1         -1      )    f =( -0.2500000 )
                  (    -1          1          0      )       ( -0.2500000 )
                  (     0          1          0      )       ( -0.2500000 )

 cart.    s(16) = (  1.0000000  0.0000000  0.0000000 )    f =( -0.3535534 )
                  (  0.0000000  0.0000000 -1.0000000 )       ( -0.3535534 )
                  (  0.0000000  1.0000000  0.0000000 )       ( -0.3535534 )


      isym = 17     120 deg rotation - cart. axis [-1,-1,-1]     

 cryst.   s(17) = (     0          0          1      )
                  (     1          0          0      )
                  (     0          1          0      )

 cart.    s(17) = (  0.0000000  1.0000000  0.0000000 )
                  (  0.0000000  0.0000000  1.0000000 )
                  (  1.0000000  0.0000000  0.0000000 )


      isym = 18     120 deg rotation - cart. axis [-1,1,1]       

 cryst.   s(18) = (     1         -1          0      )
                  (     0         -1          1      )
                  (     0         -1          0      )

 cart.    s(18) = (  0.0000000 -1.0000000  0.0000000 )
                  (  0.0000000  0.0000000  1.0000000 )
                  ( -1.0000000  0.0000000  0.0000000 )


      isym = 19     120 deg rotation - cart. axis [1,1,-1]       

 cryst.   s(19) = (    -1          1          0      )
                  (    -1          0          0      )
                  (    -1          0          1      )

 cart.    s(19) = (  0.0000000  1.0000000  0.0000000 )
                  (  0.0000000  0.0000000 -1.0000000 )
                  ( -1.0000000  0.0000000  0.0000000 )


      isym = 20     120 deg rotation - cart. axis [1,-1,1]       

 cryst.   s(20) = (     0          0         -1      )
                  (     0          1         -1      )
                  (     1          0         -1      )

 cart.    s(20) = (  0.0000000 -1.0000000  0.0000000 )
                  (  0.0000000  0.0000000 -1.0000000 )
                  (  1.0000000  0.0000000  0.0000000 )


      isym = 21     120 deg rotation - cart. axis [1,1,1]        

 cryst.   s(21) = (     0          1          0      )
                  (     0          0          1      )
                  (     1          0          0      )

 cart.    s(21) = (  0.0000000  0.0000000  1.0000000 )
                  (  1.0000000  0.0000000  0.0000000 )
                  (  0.0000000  1.0000000  0.0000000 )


      isym = 22     120 deg rotation - cart. axis [-1,1,-1]      

 cryst.   s(22) = (    -1          0          1      )
                  (    -1          1          0      )
                  (    -1          0          0      )

 cart.    s(22) = (  0.0000000  0.0000000  1.0000000 )
                  ( -1.0000000  0.0000000  0.0000000 )
                  (  0.0000000 -1.0000000  0.0000000 )


      isym = 23     120 deg rotation - cart. axis [1,-1,-1]      

 cryst.   s(23) = (     1          0         -1      )
                  (     0          0         -1      )
                  (     0          1         -1      )

 cart.    s(23) = (  0.0000000  0.0000000 -1.0000000 )
                  ( -1.0000000  0.0000000  0.0000000 )
                  (  0.0000000  1.0000000  0.0000000 )


      isym = 24     120 deg rotation - cart. axis [-1,-1,1]      

 cryst.   s(24) = (     0         -1          0      )
                  (     1         -1          0      )
                  (     0         -1          1      )

 cart.    s(24) = (  0.0000000  0.0000000 -1.0000000 )
                  (  1.0000000  0.0000000  0.0000000 )
                  (  0.0000000 -1.0000000  0.0000000 )


      isym = 25     inversion                                    

 cryst.   s(25) = (    -1          0          0      )    f =( -0.2500000 )
                  (     0         -1          0      )       ( -0.2500000 )
                  (     0          0         -1      )       ( -0.2500000 )

 cart.    s(25) = ( -1.0000000  0.0000000  0.0000000 )    f =( -0.3535534 )
                  (  0.0000000 -1.0000000  0.0000000 )       ( -0.3535534 )
                  (  0.0000000  0.0000000 -1.0000000 )       ( -0.3535534 )


      isym = 26     inv. 180 deg rotation - cart. axis [0,0,1]   

 cryst.   s(26) = (     0         -1          1      )    f =( -0.2500000 )
                  (    -1          0          1      )       ( -0.2500000 )
                  (     0          0          1      )       ( -0.2500000 )

 cart.    s(26) = (  1.0000000  0.0000000  0.0000000 )    f =( -0.3535534 )
                  (  0.0000000  1.0000000  0.0000000 )       ( -0.3535534 )
                  (  0.0000000  0.0000000 -1.0000000 )       ( -0.3535534 )


      isym = 27     inv. 180 deg rotation - cart. axis [0,1,0]   

 cryst.   s(27) = (     0          1         -1      )    f =( -0.2500000 )
                  (     0          1          0      )       ( -0.2500000 )
                  (    -1          1          0      )       ( -0.2500000 )

 cart.    s(27) = (  1.0000000  0.0000000  0.0000000 )    f =( -0.3535534 )
                  (  0.0000000 -1.0000000  0.0000000 )       ( -0.3535534 )
                  (  0.0000000  0.0000000  1.0000000 )       ( -0.3535534 )


      isym = 28     inv. 180 deg rotation - cart. axis [1,0,0]   

 cryst.   s(28) = (     1          0          0      )    f =( -0.2500000 )
                  (     1          0         -1      )       ( -0.2500000 )
                  (     1         -1          0      )       ( -0.2500000 )

 cart.    s(28) = ( -1.0000000  0.0000000  0.0000000 )    f =( -0.3535534 )
                  (  0.0000000  1.0000000  0.0000000 )       ( -0.3535534 )
                  (  0.0000000  0.0000000  1.0000000 )       ( -0.3535534 )


      isym = 29     inv. 180 deg rotation - cart. axis [1,1,0]   

 cryst.   s(29) = (     1          0         -1      )
                  (     0          1         -1      )
                  (     0          0         -1      )

 cart.    s(29) = (  0.0000000 -1.0000000  0.0000000 )
                  ( -1.0000000  0.0000000  0.0000000 )
                  (  0.0000000  0.0000000  1.0000000 )


      isym = 30     inv. 180 deg rotation - cart. axis [1,-1,0]  

 cryst.   s(30) = (     0          1          0      )
                  (     1          0          0      )
                  (     0          0          1      )

 cart.    s(30) = (  0.0000000  1.0000000  0.0000000 )
                  (  1.0000000  0.0000000  0.0000000 )
                  (  0.0000000  0.0000000  1.0000000 )


      isym = 31     inv.  90 deg rotation - cart. axis [0,0,-1]  

 cryst.   s(31) = (     0         -1          0      )
                  (     0         -1          1      )
                  (     1         -1          0      )

 cart.    s(31) = (  0.0000000 -1.0000000  0.0000000 )
                  (  1.0000000  0.0000000  0.0000000 )
                  (  0.0000000  0.0000000 -1.0000000 )


      isym = 32     inv.  90 deg rotation - cart. axis [0,0,1]   

 cryst.   s(32) = (    -1          0          1      )
                  (    -1          0          0      )
                  (    -1          1          0      )

 cart.    s(32) = (  0.0000000  1.0000000  0.0000000 )
                  ( -1.0000000  0.0000000  0.0000000 )
                  (  0.0000000  0.0000000 -1.0000000 )


      isym = 33     inv. 180 deg rotation - cart. axis [1,0,1]   

 cryst.   s(33) = (     1         -1          0      )
                  (     0         -1          0      )
                  (     0         -1          1      )

 cart.    s(33) = (  0.0000000  0.0000000 -1.0000000 )
                  (  0.0000000  1.0000000  0.0000000 )
                  ( -1.0000000  0.0000000  0.0000000 )


      isym = 34     inv. 180 deg rotation - cart. axis [-1,0,1]  

 cryst.   s(34) = (     0          0          1      )
                  (     0          1          0      )
                  (     1          0          0      )

 cart.    s(34) = (  0.0000000  0.0000000  1.0000000 )
                  (  0.0000000  1.0000000  0.0000000 )
                  (  1.0000000  0.0000000  0.0000000 )


      isym = 35     inv.  90 deg rotation - cart. axis [0,1,0]   

 cryst.   s(35) = (     0          0         -1      )
                  (     1          0         -1      )
                  (     0          1         -1      )

 cart.    s(35) = (  0.0000000  0.0000000 -1.0000000 )
                  (  0.0000000 -1.0000000  0.0000000 )
                  (  1.0000000  0.0000000  0.0000000 )


      isym = 36     inv.  90 deg rotation - cart. axis [0,-1,0]  

 cryst.   s(36) = (    -1          1          0      )
                  (    -1          0          1      )
                  (    -1          0          0      )

 cart.    s(36) = (  0.0000000  0.0000000  1.0000000 )
                  (  0.0000000 -1.0000000  0.0000000 )
                  ( -1.0000000  0.0000000  0.0000000 )


      isym = 37     inv. 180 deg rotation - cart. axis [0,1,1]   

 cryst.   s(37) = (    -1          0          0      )
                  (    -1          1          0      )
                  (    -1          0          1      )

 cart.    s(37) = (  1.0000000  0.0000000  0.0000000 )
                  (  0.0000000  0.0000000 -1.0000000 )
                  (  0.0000000 -1.0000000  0.0000000 )


      isym = 38     inv. 180 deg rotation - cart. axis [0,1,-1]  

 cryst.   s(38) = (     1          0          0      )
                  (     0          0          1      )
                  (     0          1          0      )

 cart.    s(38) = (  1.0000000  0.0000000  0.0000000 )
                  (  0.0000000  0.0000000  1.0000000 )
                  (  0.0000000  1.0000000  0.0000000 )


      isym = 39     inv.  90 deg rotation - cart. axis [-1,0,0]  

 cryst.   s(39) = (     0          1         -1      )
                  (     0          0         -1      )
                  (     1          0         -1      )

 cart.    s(39) = ( -1.0000000  0.0000000  0.0000000 )
                  (  0.0000000  0.0000000 -1.0000000 )
                  (  0.0000000  1.0000000  0.0000000 )


      isym = 40     inv.  90 deg rotation - cart. axis [1,0,0]   

 cryst.   s(40) = (     0         -1          1      )
                  (     1         -1          0      )
                  (     0         -1          0      )

 cart.    s(40) = ( -1.0000000  0.0000000  0.0000000 )
                  (  0.0000000  0.0000000  1.0000000 )
                  (  0.0000000 -1.0000000  0.0000000 )


      isym = 41     inv. 120 deg rotation - cart. axis [-1,-1,-1]

 cryst.   s(41) = (     0          0         -1      )    f =( -0.2500000 )
                  (    -1          0          0      )       ( -0.2500000 )
                  (     0         -1          0      )       ( -0.2500000 )

 cart.    s(41) = (  0.0000000 -1.0000000  0.0000000 )    f =( -0.3535534 )
                  (  0.0000000  0.0000000 -1.0000000 )       ( -0.3535534 )
                  ( -1.0000000  0.0000000  0.0000000 )       ( -0.3535534 )


      isym = 42     inv. 120 deg rotation - cart. axis [-1,1,1]  

 cryst.   s(42) = (    -1          1          0      )    f =( -0.2500000 )
                  (     0          1         -1      )       ( -0.2500000 )
                  (     0          1          0      )       ( -0.2500000 )

 cart.    s(42) = (  0.0000000  1.0000000  0.0000000 )    f =( -0.3535534 )
                  (  0.0000000  0.0000000 -1.0000000 )       ( -0.3535534 )
                  (  1.0000000  0.0000000  0.0000000 )       ( -0.3535534 )


      isym = 43     inv. 120 deg rotation - cart. axis [1,1,-1]  

 cryst.   s(43) = (     1         -1          0      )    f =( -0.2500000 )
                  (     1          0          0      )       ( -0.2500000 )
                  (     1          0         -1      )       ( -0.2500000 )

 cart.    s(43) = (  0.0000000 -1.0000000  0.0000000 )    f =( -0.3535534 )
                  (  0.0000000  0.0000000  1.0000000 )       ( -0.3535534 )
                  (  1.0000000  0.0000000  0.0000000 )       ( -0.3535534 )


      isym = 44     inv. 120 deg rotation - cart. axis [1,-1,1]  

 cryst.   s(44) = (     0          0          1      )    f =( -0.2500000 )
                  (     0         -1          1      )       ( -0.2500000 )
                  (    -1          0          1      )       ( -0.2500000 )

 cart.    s(44) = (  0.0000000  1.0000000  0.0000000 )    f =( -0.3535534 )
                  (  0.0000000  0.0000000  1.0000000 )       ( -0.3535534 )
                  ( -1.0000000  0.0000000  0.0000000 )       ( -0.3535534 )


      isym = 45     inv. 120 deg rotation - cart. axis [1,1,1]   

 cryst.   s(45) = (     0         -1          0      )    f =( -0.2500000 )
                  (     0          0         -1      )       ( -0.2500000 )
                  (    -1          0          0      )       ( -0.2500000 )

 cart.    s(45) = (  0.0000000  0.0000000 -1.0000000 )    f =( -0.3535534 )
                  ( -1.0000000  0.0000000  0.0000000 )       ( -0.3535534 )
                  (  0.0000000 -1.0000000  0.0000000 )       ( -0.3535534 )


      isym = 46     inv. 120 deg rotation - cart. axis [-1,1,-1] 

 cryst.   s(46) = (     1          0         -1      )    f =( -0.2500000 )
                  (     1         -1          0      )       ( -0.2500000 )
                  (     1          0          0      )       ( -0.2500000 )

 cart.    s(46) = (  0.0000000  0.0000000 -1.0000000 )    f =( -0.3535534 )
                  (  1.0000000  0.0000000  0.0000000 )       ( -0.3535534 )
                  (  0.0000000  1.0000000  0.0000000 )       ( -0.3535534 )


      isym = 47     inv. 120 deg rotation - cart. axis [1,-1,-1] 

 cryst.   s(47) = (    -1          0          1      )    f =( -0.2500000 )
                  (     0          0          1      )       ( -0.2500000 )
                  (     0         -1          1      )       ( -0.2500000 )

 cart.    s(47) = (  0.0000000  0.0000000  1.0000000 )    f =( -0.3535534 )
                  (  1.0000000  0.0000000  0.0000000 )       ( -0.3535534 )
                  (  0.0000000 -1.0000000  0.0000000 )       ( -0.3535534 )


      isym = 48     inv. 120 deg rotation - cart. axis [-1,-1,1] 

 cryst.   s(48) = (     0          1          0      )    f =( -0.2500000 )
                  (    -1          1          0      )       ( -0.2500000 )
                  (     0          1         -1      )       ( -0.2500000 )

 cart.    s(48) = (  0.0000000  0.0000000  1.0000000 )    f =( -0.3535534 )
                  ( -1.0000000  0.0000000  0.0000000 )       ( -0.3535534 )
                  (  0.0000000  1.0000000  0.0000000 )       ( -0.3535534 )


   Cartesian axes

     site n.     atom                  positions (alat units)
         1           Sn  tau(   1) = (   0.0000000   0.0000000   0.0000000  )
         2           Sn  tau(   2) = (   0.3535534   0.3535534   0.3535534  )

   Crystallographic axes

     site n.     atom                  positions (cryst. coord.)
         1           Sn  tau(   1) = (  0.0000000  0.0000000  0.0000000  )
         2           Sn  tau(   2) = (  0.2500000  0.2500000  0.2500000  )

     number of k points=   455  gaussian smearing, width (Ry)=  0.0100
                       cart. coord. in units 2pi/alat
        k(    1) = (   0.0000000   0.0000000   0.0000000), wk =   0.0001280
        k(    2) = (   0.0282843   0.0282843  -0.0282843), wk =   0.0010240
        k(    3) = (   0.0565685   0.0565685  -0.0565685), wk =   0.0010240
        k(    4) = (   0.0848528   0.0848528  -0.0848528), wk =   0.0010240
        k(    5) = (   0.1131371   0.1131371  -0.1131371), wk =   0.0010240
        k(    6) = (   0.1414214   0.1414214  -0.1414214), wk =   0.0010240
        k(    7) = (   0.1697056   0.1697056  -0.1697056), wk =   0.0010240
        k(    8) = (   0.1979899   0.1979899  -0.1979899), wk =   0.0010240
        k(    9) = (   0.2262742   0.2262742  -0.2262742), wk =   0.0010240
        k(   10) = (   0.2545584   0.2545584  -0.2545584), wk =   0.0010240
        k(   11) = (   0.2828427   0.2828427  -0.2828427), wk =   0.0010240
        k(   12) = (   0.3111270   0.3111270  -0.3111270), wk =   0.0010240
        k(   13) = (   0.3394113   0.3394113  -0.3394113), wk =   0.0010240
        k(   14) = (   0.0565685   0.0000000   0.0000000), wk =   0.0007680
        k(   15) = (   0.0848528   0.0282843  -0.0282843), wk =   0.0030720
        k(   16) = (   0.1131371   0.0565685  -0.0565685), wk =   0.0030720
        k(   17) = (   0.1414214   0.0848528  -0.0848528), wk =   0.0030720
        k(   18) = (   0.1697056   0.1131371  -0.1131371), wk =   0.0030720
        k(   19) = (   0.1979899   0.1414214  -0.1414214), wk =   0.0030720
        k(   20) = (   0.2262742   0.1697056  -0.1697056), wk =   0.0030720
        k(   21) = (   0.2545584   0.1979899  -0.1979899), wk =   0.0030720
        k(   22) = (   0.2828427   0.2262742  -0.2262742), wk =   0.0030720
        k(   23) = (   0.3111270   0.2545584  -0.2545584), wk =   0.0030720
        k(   24) = (   0.3394113   0.2828427  -0.2828427), wk =   0.0030720
        k(   25) = (   0.3676955   0.3111270  -0.3111270), wk =   0.0030720
        k(   26) = (  -0.3111270  -0.3676955   0.3676955), wk =   0.0030720
        k(   27) = (  -0.2828427  -0.3394113   0.3394113), wk =   0.0030720
        k(   28) = (  -0.2545584  -0.3111270   0.3111270), wk =   0.0030720
        k(   29) = (  -0.2262742  -0.2828427   0.2828427), wk =   0.0030720
        k(   30) = (  -0.1979899  -0.2545584   0.2545584), wk =   0.0030720
        k(   31) = (  -0.1697056  -0.2262742   0.2262742), wk =   0.0030720
        k(   32) = (  -0.1414214  -0.1979899   0.1979899), wk =   0.0030720
        k(   33) = (  -0.1131371  -0.1697056   0.1697056), wk =   0.0030720
        k(   34) = (  -0.0848528  -0.1414214   0.1414214), wk =   0.0030720
        k(   35) = (  -0.0565685  -0.1131371   0.1131371), wk =   0.0030720
        k(   36) = (  -0.0282843  -0.0848528   0.0848528), wk =   0.0030720
        k(   37) = (  -0.0000000  -0.0565685   0.0565685), wk =   0.0015360
        k(   38) = (   0.1131371   0.0000000   0.0000000), wk =   0.0007680
        k(   39) = (   0.1414214   0.0282843  -0.0282843), wk =   0.0030720
        k(   40) = (   0.1697056   0.0565685  -0.0565685), wk =   0.0030720
        k(   41) = (   0.1979899   0.0848528  -0.0848528), wk =   0.0030720
        k(   42) = (   0.2262742   0.1131371  -0.1131371), wk =   0.0030720
        k(   43) = (   0.2545584   0.1414214  -0.1414214), wk =   0.0030720
        k(   44) = (   0.2828427   0.1697056  -0.1697056), wk =   0.0030720
        k(   45) = (   0.3111270   0.1979899  -0.1979899), wk =   0.0030720
        k(   46) = (   0.3394113   0.2262742  -0.2262742), wk =   0.0030720
        k(   47) = (   0.3676955   0.2545584  -0.2545584), wk =   0.0030720
        k(   48) = (   0.3959798   0.2828427  -0.2828427), wk =   0.0030720
        k(   49) = (  -0.2828427  -0.3959798   0.3959798), wk =   0.0030720
        k(   50) = (  -0.2545584  -0.3676955   0.3676955), wk =   0.0030720
        k(   51) = (  -0.2262742  -0.3394113   0.3394113), wk =   0.0030720
        k(   52) = (  -0.1979899  -0.3111270   0.3111270), wk =   0.0030720
        k(   53) = (  -0.1697056  -0.2828427   0.2828427), wk =   0.0030720
        k(   54) = (  -0.1414214  -0.2545584   0.2545584), wk =   0.0030720
        k(   55) = (  -0.1131371  -0.2262742   0.2262742), wk =   0.0030720
        k(   56) = (  -0.0848528  -0.1979899   0.1979899), wk =   0.0030720
        k(   57) = (  -0.0565685  -0.1697056   0.1697056), wk =   0.0030720
        k(   58) = (  -0.0282843  -0.1414214   0.1414214), wk =   0.0030720
        k(   59) = (   0.0000000  -0.1131371   0.1131371), wk =   0.0015360
        k(   60) = (   0.1697056   0.0000000   0.0000000), wk =   0.0007680
        k(   61) = (   0.1979899   0.0282843  -0.0282843), wk =   0.0030720
        k(   62) = (   0.2262742   0.0565685  -0.0565685), wk =   0.0030720
        k(   63) = (   0.2545584   0.0848528  -0.0848528), wk =   0.0030720
        k(   64) = (   0.2828427   0.1131371  -0.1131371), wk =   0.0030720
        k(   65) = (   0.3111270   0.1414214  -0.1414214), wk =   0.0030720
        k(   66) = (   0.3394113   0.1697056  -0.1697056), wk =   0.0030720
        k(   67) = (   0.3676955   0.1979899  -0.1979899), wk =   0.0030720
        k(   68) = (   0.3959798   0.2262742  -0.2262742), wk =   0.0030720
        k(   69) = (   0.4242641   0.2545584  -0.2545584), wk =   0.0030720
        k(   70) = (  -0.2545584  -0.4242641   0.4242641), wk =   0.0030720
        k(   71) = (  -0.2262742  -0.3959798   0.3959798), wk =   0.0030720
        k(   72) = (  -0.1979899  -0.3676955   0.3676955), wk =   0.0030720
        k(   73) = (  -0.1697056  -0.3394113   0.3394113), wk =   0.0030720
        k(   74) = (  -0.1414214  -0.3111270   0.3111270), wk =   0.0030720
        k(   75) = (  -0.1131371  -0.2828427   0.2828427), wk =   0.0030720
        k(   76) = (  -0.0848528  -0.2545584   0.2545584), wk =   0.0030720
        k(   77) = (  -0.0565685  -0.2262742   0.2262742), wk =   0.0030720
        k(   78) = (  -0.0282843  -0.1979899   0.1979899), wk =   0.0030720
        k(   79) = (   0.0000000  -0.1697056   0.1697056), wk =   0.0015360
        k(   80) = (   0.2262742   0.0000000   0.0000000), wk =   0.0007680
        k(   81) = (   0.2545584   0.0282843  -0.0282843), wk =   0.0030720
        k(   82) = (   0.2828427   0.0565685  -0.0565685), wk =   0.0030720
        k(   83) = (   0.3111270   0.0848528  -0.0848528), wk =   0.0030720
        k(   84) = (   0.3394113   0.1131371  -0.1131371), wk =   0.0030720
        k(   85) = (   0.3676955   0.1414214  -0.1414214), wk =   0.0030720
        k(   86) = (   0.3959798   0.1697056  -0.1697056), wk =   0.0030720
        k(   87) = (   0.4242641   0.1979899  -0.1979899), wk =   0.0030720
        k(   88) = (   0.4525483   0.2262742  -0.2262742), wk =   0.0030720
        k(   89) = (  -0.2262742  -0.4525483   0.4525483), wk =   0.0030720
        k(   90) = (  -0.1979899  -0.4242641   0.4242641), wk =   0.0030720
        k(   91) = (  -0.1697056  -0.3959798   0.3959798), wk =   0.0030720
        k(   92) = (  -0.1414214  -0.3676955   0.3676955), wk =   0.0030720
        k(   93) = (  -0.1131371  -0.3394113   0.3394113), wk =   0.0030720
        k(   94) = (  -0.0848528  -0.3111270   0.3111270), wk =   0.0030720
        k(   95) = (  -0.0565685  -0.2828427   0.2828427), wk =   0.0030720
        k(   96) = (  -0.0282843  -0.2545584   0.2545584), wk =   0.0030720
        k(   97) = (  -0.0000000  -0.2262742   0.2262742), wk =   0.0015360
        k(   98) = (   0.2828427   0.0000000   0.0000000), wk =   0.0007680
        k(   99) = (   0.3111270   0.0282843  -0.0282843), wk =   0.0030720
        k(  100) = (   0.3394113   0.0565685  -0.0565685), wk =   0.0030720
        k(  101) = (   0.3676955   0.0848528  -0.0848528), wk =   0.0030720
        k(  102) = (   0.3959798   0.1131371  -0.1131371), wk =   0.0030720
        k(  103) = (   0.4242641   0.1414214  -0.1414214), wk =   0.0030720
        k(  104) = (   0.4525483   0.1697056  -0.1697056), wk =   0.0030720
        k(  105) = (   0.4808326   0.1979899  -0.1979899), wk =   0.0030720
        k(  106) = (  -0.1979899  -0.4808326   0.4808326), wk =   0.0030720
        k(  107) = (  -0.1697056  -0.4525483   0.4525483), wk =   0.0030720
        k(  108) = (  -0.1414214  -0.4242641   0.4242641), wk =   0.0030720
        k(  109) = (  -0.1131371  -0.3959798   0.3959798), wk =   0.0030720
        k(  110) = (  -0.0848528  -0.3676955   0.3676955), wk =   0.0030720
        k(  111) = (  -0.0565685  -0.3394113   0.3394113), wk =   0.0030720
        k(  112) = (  -0.0282843  -0.3111270   0.3111270), wk =   0.0030720
        k(  113) = (   0.0000000  -0.2828427   0.2828427), wk =   0.0015360
        k(  114) = (   0.3394113   0.0000000   0.0000000), wk =   0.0007680
        k(  115) = (   0.3676955   0.0282843  -0.0282843), wk =   0.0030720
        k(  116) = (   0.3959798   0.0565685  -0.0565685), wk =   0.0030720
        k(  117) = (   0.4242641   0.0848528  -0.0848528), wk =   0.0030720
        k(  118) = (   0.4525483   0.1131371  -0.1131371), wk =   0.0030720
        k(  119) = (   0.4808326   0.1414214  -0.1414214), wk =   0.0030720
        k(  120) = (   0.5091169   0.1697056  -0.1697056), wk =   0.0030720
        k(  121) = (  -0.1697056  -0.5091169   0.5091169), wk =   0.0030720
        k(  122) = (  -0.1414214  -0.4808326   0.4808326), wk =   0.0030720
        k(  123) = (  -0.1131371  -0.4525483   0.4525483), wk =   0.0030720
        k(  124) = (  -0.0848528  -0.4242641   0.4242641), wk =   0.0030720
        k(  125) = (  -0.0565685  -0.3959798   0.3959798), wk =   0.0030720
        k(  126) = (  -0.0282843  -0.3676955   0.3676955), wk =   0.0030720
        k(  127) = (   0.0000000  -0.3394113   0.3394113), wk =   0.0015360
        k(  128) = (   0.3959798   0.0000000   0.0000000), wk =   0.0007680
        k(  129) = (   0.4242641   0.0282843  -0.0282843), wk =   0.0030720
        k(  130) = (   0.4525483   0.0565685  -0.0565685), wk =   0.0030720
        k(  131) = (   0.4808326   0.0848528  -0.0848528), wk =   0.0030720
        k(  132) = (   0.5091169   0.1131371  -0.1131371), wk =   0.0030720
        k(  133) = (   0.5374012   0.1414214  -0.1414214), wk =   0.0030720
        k(  134) = (  -0.1414214  -0.5374012   0.5374012), wk =   0.0030720
        k(  135) = (  -0.1131371  -0.5091169   0.5091169), wk =   0.0030720
        k(  136) = (  -0.0848528  -0.4808326   0.4808326), wk =   0.0030720
        k(  137) = (  -0.0565685  -0.4525483   0.4525483), wk =   0.0030720
        k(  138) = (  -0.0282843  -0.4242641   0.4242641), wk =   0.0030720
        k(  139) = (   0.0000000  -0.3959798   0.3959798), wk =   0.0015360
        k(  140) = (   0.4525483   0.0000000   0.0000000), wk =   0.0007680
        k(  141) = (   0.4808326   0.0282843  -0.0282843), wk =   0.0030720
        k(  142) = (   0.5091169   0.0565685  -0.0565685), wk =   0.0030720
        k(  143) = (   0.5374012   0.0848528  -0.0848528), wk =   0.0030720
        k(  144) = (   0.5656854   0.1131371  -0.1131371), wk =   0.0030720
        k(  145) = (  -0.1131371  -0.5656854   0.5656854), wk =   0.0030720
        k(  146) = (  -0.0848528  -0.5374012   0.5374012), wk =   0.0030720
        k(  147) = (  -0.0565685  -0.5091169   0.5091169), wk =   0.0030720
        k(  148) = (  -0.0282843  -0.4808326   0.4808326), wk =   0.0030720
        k(  149) = (   0.0000000  -0.4525483   0.4525483), wk =   0.0015360
        k(  150) = (   0.5091169   0.0000000   0.0000000), wk =   0.0007680
        k(  151) = (   0.5374012   0.0282843  -0.0282843), wk =   0.0030720
        k(  152) = (   0.5656854   0.0565685  -0.0565685), wk =   0.0030720
        k(  153) = (   0.5939697   0.0848528  -0.0848528), wk =   0.0030720
        k(  154) = (  -0.0848528  -0.5939697   0.5939697), wk =   0.0030720
        k(  155) = (  -0.0565685  -0.5656854   0.5656854), wk =   0.0030720
        k(  156) = (  -0.0282843  -0.5374012   0.5374012), wk =   0.0030720
        k(  157) = (   0.0000000  -0.5091169   0.5091169), wk =   0.0015360
        k(  158) = (   0.5656854   0.0000000   0.0000000), wk =   0.0007680
        k(  159) = (   0.5939697   0.0282843  -0.0282843), wk =   0.0030720
        k(  160) = (   0.6222540   0.0565685  -0.0565685), wk =   0.0030720
        k(  161) = (  -0.0565685  -0.6222540   0.6222540), wk =   0.0030720
        k(  162) = (  -0.0282843  -0.5939697   0.5939697), wk =   0.0030720
        k(  163) = (   0.0000000  -0.5656854   0.5656854), wk =   0.0015360
        k(  164) = (   0.6222540   0.0000000   0.0000000), wk =   0.0007680
        k(  165) = (   0.6505382   0.0282843  -0.0282843), wk =   0.0030720
        k(  166) = (  -0.0282843  -0.6505382   0.6505382), wk =   0.0030720
        k(  167) = (   0.0000000  -0.6222540   0.6222540), wk =   0.0015360
        k(  168) = (   0.6788225   0.0000000   0.0000000), wk =   0.0007680
        k(  169) = (   0.0000000  -0.6788225   0.6788225), wk =   0.0015360
        k(  170) = (   0.1131371   0.0565685   0.0000000), wk =   0.0030720
        k(  171) = (   0.1414214   0.0848528  -0.0282843), wk =   0.0061440
        k(  172) = (   0.1697056   0.1131371  -0.0565685), wk =   0.0061440
        k(  173) = (   0.1979899   0.1414214  -0.0848528), wk =   0.0061440
        k(  174) = (   0.2262742   0.1697056  -0.1131371), wk =   0.0061440
        k(  175) = (   0.2545584   0.1979899  -0.1414214), wk =   0.0061440
        k(  176) = (   0.2828427   0.2262742  -0.1697056), wk =   0.0061440
        k(  177) = (   0.3111270   0.2545584  -0.1979899), wk =   0.0061440
        k(  178) = (   0.3394113   0.2828427  -0.2262742), wk =   0.0061440
        k(  179) = (   0.3676955   0.3111270  -0.2545584), wk =   0.0061440
        k(  180) = (  -0.3111270  -0.3676955   0.4242641), wk =   0.0061440
        k(  181) = (   0.1697056   0.0565685   0.0000000), wk =   0.0030720
        k(  182) = (   0.1979899   0.0848528  -0.0282843), wk =   0.0061440
        k(  183) = (   0.2262742   0.1131371  -0.0565685), wk =   0.0061440
        k(  184) = (   0.2545584   0.1414214  -0.0848528), wk =   0.0061440
        k(  185) = (   0.2828427   0.1697056  -0.1131371), wk =   0.0061440
        k(  186) = (   0.3111270   0.1979899  -0.1414214), wk =   0.0061440
        k(  187) = (   0.3394113   0.2262742  -0.1697056), wk =   0.0061440
        k(  188) = (   0.3676955   0.2545584  -0.1979899), wk =   0.0061440
        k(  189) = (   0.3959798   0.2828427  -0.2262742), wk =   0.0061440
        k(  190) = (  -0.2828427  -0.3959798   0.4525483), wk =   0.0061440
        k(  191) = (  -0.2545584  -0.3676955   0.4242641), wk =   0.0061440
        k(  192) = (  -0.2262742  -0.3394113   0.3959798), wk =   0.0061440
        k(  193) = (  -0.1979899  -0.3111270   0.3676955), wk =   0.0061440
        k(  194) = (  -0.1697056  -0.2828427   0.3394113), wk =   0.0061440
        k(  195) = (  -0.1414214  -0.2545584   0.3111270), wk =   0.0061440
        k(  196) = (  -0.1131371  -0.2262742   0.2828427), wk =   0.0061440
        k(  197) = (  -0.0848528  -0.1979899   0.2545584), wk =   0.0061440
        k(  198) = (  -0.0565685  -0.1697056   0.2262742), wk =   0.0061440
        k(  199) = (  -0.0282843  -0.1414214   0.1979899), wk =   0.0061440
        k(  200) = (   0.0000000  -0.1131371   0.1697056), wk =   0.0030720
        k(  201) = (   0.2262742   0.0565685   0.0000000), wk =   0.0030720
        k(  202) = (   0.2545584   0.0848528  -0.0282843), wk =   0.0061440
        k(  203) = (   0.2828427   0.1131371  -0.0565685), wk =   0.0061440
        k(  204) = (   0.3111270   0.1414214  -0.0848528), wk =   0.0061440
        k(  205) = (   0.3394113   0.1697056  -0.1131371), wk =   0.0061440
        k(  206) = (   0.3676955   0.1979899  -0.1414214), wk =   0.0061440
        k(  207) = (   0.3959798   0.2262742  -0.1697056), wk =   0.0061440
        k(  208) = (   0.4242641   0.2545584  -0.1979899), wk =   0.0061440
        k(  209) = (  -0.2545584  -0.4242641   0.4808326), wk =   0.0061440
        k(  210) = (  -0.2262742  -0.3959798   0.4525483), wk =   0.0061440
        k(  211) = (  -0.1979899  -0.3676955   0.4242641), wk =   0.0061440
        k(  212) = (  -0.1697056  -0.3394113   0.3959798), wk =   0.0061440
        k(  213) = (  -0.1414214  -0.3111270   0.3676955), wk =   0.0061440
        k(  214) = (  -0.1131371  -0.2828427   0.3394113), wk =   0.0061440
        k(  215) = (  -0.0848528  -0.2545584   0.3111270), wk =   0.0061440
        k(  216) = (  -0.0565685  -0.2262742   0.2828427), wk =   0.0061440
        k(  217) = (  -0.0282843  -0.1979899   0.2545584), wk =   0.0061440
        k(  218) = (   0.0000000  -0.1697056   0.2262742), wk =   0.0030720
        k(  219) = (   0.2828427   0.0565685   0.0000000), wk =   0.0030720
        k(  220) = (   0.3111270   0.0848528  -0.0282843), wk =   0.0061440
        k(  221) = (   0.3394113   0.1131371  -0.0565685), wk =   0.0061440
        k(  222) = (   0.3676955   0.1414214  -0.0848528), wk =   0.0061440
        k(  223) = (   0.3959798   0.1697056  -0.1131371), wk =   0.0061440
        k(  224) = (   0.4242641   0.1979899  -0.1414214), wk =   0.0061440
        k(  225) = (   0.4525483   0.2262742  -0.1697056), wk =   0.0061440
        k(  226) = (  -0.2262742  -0.4525483   0.5091169), wk =   0.0061440
        k(  227) = (  -0.1979899  -0.4242641   0.4808326), wk =   0.0061440
        k(  228) = (  -0.1697056  -0.3959798   0.4525483), wk =   0.0061440
        k(  229) = (  -0.1414214  -0.3676955   0.4242641), wk =   0.0061440
        k(  230) = (  -0.1131371  -0.3394113   0.3959798), wk =   0.0061440
        k(  231) = (  -0.0848528  -0.3111270   0.3676955), wk =   0.0061440
        k(  232) = (  -0.0565685  -0.2828427   0.3394113), wk =   0.0061440
        k(  233) = (  -0.0282843  -0.2545584   0.3111270), wk =   0.0061440
        k(  234) = (  -0.0000000  -0.2262742   0.2828427), wk =   0.0030720
        k(  235) = (   0.3394113   0.0565685   0.0000000), wk =   0.0030720
        k(  236) = (   0.3676955   0.0848528  -0.0282843), wk =   0.0061440
        k(  237) = (   0.3959798   0.1131371  -0.0565685), wk =   0.0061440
        k(  238) = (   0.4242641   0.1414214  -0.0848528), wk =   0.0061440
        k(  239) = (   0.4525483   0.1697056  -0.1131371), wk =   0.0061440
        k(  240) = (   0.4808326   0.1979899  -0.1414214), wk =   0.0061440
        k(  241) = (  -0.1979899  -0.4808326   0.5374012), wk =   0.0061440
        k(  242) = (  -0.1697056  -0.4525483   0.5091169), wk =   0.0061440
        k(  243) = (  -0.1414214  -0.4242641   0.4808326), wk =   0.0061440
        k(  244) = (  -0.1131371  -0.3959798   0.4525483), wk =   0.0061440
        k(  245) = (  -0.0848528  -0.3676955   0.4242641), wk =   0.0061440
        k(  246) = (  -0.0565685  -0.3394113   0.3959798), wk =   0.0061440
        k(  247) = (  -0.0282843  -0.3111270   0.3676955), wk =   0.0061440
        k(  248) = (   0.0000000  -0.2828427   0.3394113), wk =   0.0030720
        k(  249) = (   0.3959798   0.0565685   0.0000000), wk =   0.0030720
        k(  250) = (   0.4242641   0.0848528  -0.0282843), wk =   0.0061440
        k(  251) = (   0.4525483   0.1131371  -0.0565685), wk =   0.0061440
        k(  252) = (   0.4808326   0.1414214  -0.0848528), wk =   0.0061440
        k(  253) = (   0.5091169   0.1697056  -0.1131371), wk =   0.0061440
        k(  254) = (  -0.1697056  -0.5091169   0.5656854), wk =   0.0061440
        k(  255) = (  -0.1414214  -0.4808326   0.5374012), wk =   0.0061440
        k(  256) = (  -0.1131371  -0.4525483   0.5091169), wk =   0.0061440
        k(  257) = (  -0.0848528  -0.4242641   0.4808326), wk =   0.0061440
        k(  258) = (  -0.0565685  -0.3959798   0.4525483), wk =   0.0061440
        k(  259) = (  -0.0282843  -0.3676955   0.4242641), wk =   0.0061440
        k(  260) = (   0.0000000  -0.3394113   0.3959798), wk =   0.0030720
        k(  261) = (   0.4525483   0.0565685   0.0000000), wk =   0.0030720
        k(  262) = (   0.4808326   0.0848528  -0.0282843), wk =   0.0061440
        k(  263) = (   0.5091169   0.1131371  -0.0565685), wk =   0.0061440
        k(  264) = (   0.5374012   0.1414214  -0.0848528), wk =   0.0061440
        k(  265) = (  -0.1414214  -0.5374012   0.5939697), wk =   0.0061440
        k(  266) = (  -0.1131371  -0.5091169   0.5656854), wk =   0.0061440
        k(  267) = (  -0.0848528  -0.4808326   0.5374012), wk =   0.0061440
        k(  268) = (  -0.0565685  -0.4525483   0.5091169), wk =   0.0061440
        k(  269) = (  -0.0282843  -0.4242641   0.4808326), wk =   0.0061440
        k(  270) = (   0.0000000  -0.3959798   0.4525483), wk =   0.0030720
        k(  271) = (   0.5091169   0.0565685  -0.0000000), wk =   0.0030720
        k(  272) = (   0.5374012   0.0848528  -0.0282843), wk =   0.0061440
        k(  273) = (   0.5656854   0.1131371  -0.0565685), wk =   0.0061440
        k(  274) = (  -0.1131371  -0.5656854   0.6222540), wk =   0.0061440
        k(  275) = (  -0.0848528  -0.5374012   0.5939697), wk =   0.0061440
        k(  276) = (  -0.0565685  -0.5091169   0.5656854), wk =   0.0061440
        k(  277) = (  -0.0282843  -0.4808326   0.5374012), wk =   0.0061440
        k(  278) = (   0.0000000  -0.4525483   0.5091169), wk =   0.0030720
        k(  279) = (   0.5656854   0.0565685   0.0000000), wk =   0.0030720
        k(  280) = (   0.5939697   0.0848528  -0.0282843), wk =   0.0061440
        k(  281) = (  -0.0848528  -0.5939697   0.6505382), wk =   0.0061440
        k(  282) = (  -0.0565685  -0.5656854   0.6222540), wk =   0.0061440
        k(  283) = (  -0.0282843  -0.5374012   0.5939697), wk =   0.0061440
        k(  284) = (   0.0000000  -0.5091169   0.5656854), wk =   0.0030720
        k(  285) = (   0.6222540   0.0565685   0.0000000), wk =   0.0030720
        k(  286) = (  -0.0565685  -0.6222540   0.6788225), wk =   0.0061440
        k(  287) = (  -0.0282843  -0.5939697   0.6505382), wk =   0.0061440
        k(  288) = (  -0.0000000  -0.5656854   0.6222540), wk =   0.0030720
        k(  289) = (  -0.0282843  -0.6505382   0.7071068), wk =   0.0030720
        k(  290) = (   0.0000000  -0.6222540   0.6788225), wk =   0.0030720
        k(  291) = (   0.2262742   0.1131371   0.0000000), wk =   0.0030720
        k(  292) = (   0.2545584   0.1414214  -0.0282843), wk =   0.0061440
        k(  293) = (   0.2828427   0.1697056  -0.0565685), wk =   0.0061440
        k(  294) = (   0.3111270   0.1979899  -0.0848528), wk =   0.0061440
        k(  295) = (   0.3394113   0.2262742  -0.1131371), wk =   0.0061440
        k(  296) = (   0.3676955   0.2545584  -0.1414214), wk =   0.0061440
        k(  297) = (   0.3959798   0.2828427  -0.1697056), wk =   0.0061440
        k(  298) = (  -0.2828427  -0.3959798   0.5091169), wk =   0.0061440
        k(  299) = (  -0.2545584  -0.3676955   0.4808326), wk =   0.0061440
        k(  300) = (   0.2828427   0.1131371   0.0000000), wk =   0.0030720
        k(  301) = (   0.3111270   0.1414214  -0.0282843), wk =   0.0061440
        k(  302) = (   0.3394113   0.1697056  -0.0565685), wk =   0.0061440
        k(  303) = (   0.3676955   0.1979899  -0.0848528), wk =   0.0061440
        k(  304) = (   0.3959798   0.2262742  -0.1131371), wk =   0.0061440
        k(  305) = (   0.4242641   0.2545584  -0.1414214), wk =   0.0061440
        k(  306) = (  -0.2545584  -0.4242641   0.5374012), wk =   0.0061440
        k(  307) = (  -0.2262742  -0.3959798   0.5091169), wk =   0.0061440
        k(  308) = (  -0.1979899  -0.3676955   0.4808326), wk =   0.0061440
        k(  309) = (  -0.1697056  -0.3394113   0.4525483), wk =   0.0061440
        k(  310) = (  -0.1414214  -0.3111270   0.4242641), wk =   0.0061440
        k(  311) = (  -0.1131371  -0.2828427   0.3959798), wk =   0.0061440
        k(  312) = (  -0.0848528  -0.2545584   0.3676955), wk =   0.0061440
        k(  313) = (  -0.0565685  -0.2262742   0.3394113), wk =   0.0061440
        k(  314) = (  -0.0282843  -0.1979899   0.3111270), wk =   0.0061440
        k(  315) = (   0.0000000  -0.1697056   0.2828427), wk =   0.0030720
        k(  316) = (   0.3394113   0.1131371   0.0000000), wk =   0.0030720
        k(  317) = (   0.3676955   0.1414214  -0.0282843), wk =   0.0061440
        k(  318) = (   0.3959798   0.1697056  -0.0565685), wk =   0.0061440
        k(  319) = (   0.4242641   0.1979899  -0.0848528), wk =   0.0061440
        k(  320) = (   0.4525483   0.2262742  -0.1131371), wk =   0.0061440
        k(  321) = (  -0.2262742  -0.4525483   0.5656854), wk =   0.0061440
        k(  322) = (  -0.1979899  -0.4242641   0.5374012), wk =   0.0061440
        k(  323) = (  -0.1697056  -0.3959798   0.5091169), wk =   0.0061440
        k(  324) = (  -0.1414214  -0.3676955   0.4808326), wk =   0.0061440
        k(  325) = (  -0.1131371  -0.3394113   0.4525483), wk =   0.0061440
        k(  326) = (  -0.0848528  -0.3111270   0.4242641), wk =   0.0061440
        k(  327) = (  -0.0565685  -0.2828427   0.3959798), wk =   0.0061440
        k(  328) = (  -0.0282843  -0.2545584   0.3676955), wk =   0.0061440
        k(  329) = (  -0.0000000  -0.2262742   0.3394113), wk =   0.0030720
        k(  330) = (   0.3959798   0.1131371   0.0000000), wk =   0.0030720
        k(  331) = (   0.4242641   0.1414214  -0.0282843), wk =   0.0061440
        k(  332) = (   0.4525483   0.1697056  -0.0565685), wk =   0.0061440
        k(  333) = (   0.4808326   0.1979899  -0.0848528), wk =   0.0061440
        k(  334) = (  -0.1979899  -0.4808326   0.5939697), wk =   0.0061440
        k(  335) = (  -0.1697056  -0.4525483   0.5656854), wk =   0.0061440
        k(  336) = (  -0.1414214  -0.4242641   0.5374012), wk =   0.0061440
        k(  337) = (  -0.1131371  -0.3959798   0.5091169), wk =   0.0061440
        k(  338) = (  -0.0848528  -0.3676955   0.4808326), wk =   0.0061440
        k(  339) = (  -0.0565685  -0.3394113   0.4525483), wk =   0.0061440
        k(  340) = (  -0.0282843  -0.3111270   0.4242641), wk =   0.0061440
        k(  341) = (   0.0000000  -0.2828427   0.3959798), wk =   0.0030720
        k(  342) = (   0.4525483   0.1131371   0.0000000), wk =   0.0030720
        k(  343) = (   0.4808326   0.1414214  -0.0282843), wk =   0.0061440
        k(  344) = (   0.5091169   0.1697056  -0.0565685), wk =   0.0061440
        k(  345) = (  -0.1697056  -0.5091169   0.6222540), wk =   0.0061440
        k(  346) = (  -0.1414214  -0.4808326   0.5939697), wk =   0.0061440
        k(  347) = (  -0.1131371  -0.4525483   0.5656854), wk =   0.0061440
        k(  348) = (  -0.0848528  -0.4242641   0.5374012), wk =   0.0061440
        k(  349) = (  -0.0565685  -0.3959798   0.5091169), wk =   0.0061440
        k(  350) = (  -0.0282843  -0.3676955   0.4808326), wk =   0.0061440
        k(  351) = (   0.0000000  -0.3394113   0.4525483), wk =   0.0030720
        k(  352) = (   0.5091169   0.1131371   0.0000000), wk =   0.0030720
        k(  353) = (   0.5374012   0.1414214  -0.0282843), wk =   0.0061440
        k(  354) = (  -0.1414214  -0.5374012   0.6505382), wk =   0.0061440
        k(  355) = (  -0.1131371  -0.5091169   0.6222540), wk =   0.0061440
        k(  356) = (  -0.0848528  -0.4808326   0.5939697), wk =   0.0061440
        k(  357) = (  -0.0565685  -0.4525483   0.5656854), wk =   0.0061440
        k(  358) = (  -0.0282843  -0.4242641   0.5374012), wk =   0.0061440
        k(  359) = (  -0.0000000  -0.3959798   0.5091169), wk =   0.0030720
        k(  360) = (   0.5656854   0.1131371   0.0000000), wk =   0.0030720
        k(  361) = (  -0.1131371  -0.5656854   0.6788225), wk =   0.0061440
        k(  362) = (  -0.0848528  -0.5374012   0.6505382), wk =   0.0061440
        k(  363) = (  -0.0565685  -0.5091169   0.6222540), wk =   0.0061440
        k(  364) = (  -0.0282843  -0.4808326   0.5939697), wk =   0.0061440
        k(  365) = (   0.0000000  -0.4525483   0.5656854), wk =   0.0030720
        k(  366) = (  -0.0848528  -0.5939697   0.7071068), wk =   0.0030720
        k(  367) = (  -0.0565685  -0.5656854   0.6788225), wk =   0.0061440
        k(  368) = (  -0.0282843  -0.5374012   0.6505382), wk =   0.0061440
        k(  369) = (   0.0000000  -0.5091169   0.6222540), wk =   0.0030720
        k(  370) = (  -0.0282843  -0.5939697   0.7071068), wk =   0.0030720
        k(  371) = (  -0.0000000  -0.5656854   0.6788225), wk =   0.0030720
        k(  372) = (   0.3394113   0.1697056   0.0000000), wk =   0.0030720
        k(  373) = (   0.3676955   0.1979899  -0.0282843), wk =   0.0061440
        k(  374) = (   0.3959798   0.2262742  -0.0565685), wk =   0.0061440
        k(  375) = (   0.4242641   0.2545584  -0.0848528), wk =   0.0061440
        k(  376) = (  -0.2545584  -0.4242641   0.5939697), wk =   0.0061440
        k(  377) = (  -0.2262742  -0.3959798   0.5656854), wk =   0.0061440
        k(  378) = (  -0.1979899  -0.3676955   0.5374012), wk =   0.0061440
        k(  379) = (   0.3959798   0.1697056  -0.0000000), wk =   0.0030720
        k(  380) = (   0.4242641   0.1979899  -0.0282843), wk =   0.0061440
        k(  381) = (   0.4525483   0.2262742  -0.0565685), wk =   0.0061440
        k(  382) = (  -0.2262742  -0.4525483   0.6222540), wk =   0.0061440
        k(  383) = (  -0.1979899  -0.4242641   0.5939697), wk =   0.0061440
        k(  384) = (  -0.1697056  -0.3959798   0.5656854), wk =   0.0061440
        k(  385) = (  -0.1414214  -0.3676955   0.5374012), wk =   0.0061440
        k(  386) = (  -0.1131371  -0.3394113   0.5091169), wk =   0.0061440
        k(  387) = (  -0.0848528  -0.3111270   0.4808326), wk =   0.0061440
        k(  388) = (  -0.0565685  -0.2828427   0.4525483), wk =   0.0061440
        k(  389) = (  -0.0282843  -0.2545584   0.4242641), wk =   0.0061440
        k(  390) = (  -0.0000000  -0.2262742   0.3959798), wk =   0.0030720
        k(  391) = (   0.4525483   0.1697056   0.0000000), wk =   0.0030720
        k(  392) = (   0.4808326   0.1979899  -0.0282843), wk =   0.0061440
        k(  393) = (  -0.1979899  -0.4808326   0.6505382), wk =   0.0061440
        k(  394) = (  -0.1697056  -0.4525483   0.6222540), wk =   0.0061440
        k(  395) = (  -0.1414214  -0.4242641   0.5939697), wk =   0.0061440
        k(  396) = (  -0.1131371  -0.3959798   0.5656854), wk =   0.0061440
        k(  397) = (  -0.0848528  -0.3676955   0.5374012), wk =   0.0061440
        k(  398) = (  -0.0565685  -0.3394113   0.5091169), wk =   0.0061440
        k(  399) = (  -0.0282843  -0.3111270   0.4808326), wk =   0.0061440
        k(  400) = (   0.0000000  -0.2828427   0.4525483), wk =   0.0030720
        k(  401) = (   0.5091169   0.1697056   0.0000000), wk =   0.0030720
        k(  402) = (  -0.1697056  -0.5091169   0.6788225), wk =   0.0061440
        k(  403) = (  -0.1414214  -0.4808326   0.6505382), wk =   0.0061440
        k(  404) = (  -0.1131371  -0.4525483   0.6222540), wk =   0.0061440
        k(  405) = (  -0.0848528  -0.4242641   0.5939697), wk =   0.0061440
        k(  406) = (  -0.0565685  -0.3959798   0.5656854), wk =   0.0061440
        k(  407) = (  -0.0282843  -0.3676955   0.5374012), wk =   0.0061440
        k(  408) = (  -0.0000000  -0.3394113   0.5091169), wk =   0.0030720
        k(  409) = (  -0.1414214  -0.5374012   0.7071068), wk =   0.0030720
        k(  410) = (  -0.1131371  -0.5091169   0.6788225), wk =   0.0061440
        k(  411) = (  -0.0848528  -0.4808326   0.6505382), wk =   0.0061440
        k(  412) = (  -0.0565685  -0.4525483   0.6222540), wk =   0.0061440
        k(  413) = (  -0.0282843  -0.4242641   0.5939697), wk =   0.0061440
        k(  414) = (   0.0000000  -0.3959798   0.5656854), wk =   0.0030720
        k(  415) = (  -0.0848528  -0.5374012   0.7071068), wk =   0.0030720
        k(  416) = (  -0.0565685  -0.5091169   0.6788225), wk =   0.0061440
        k(  417) = (  -0.0282843  -0.4808326   0.6505382), wk =   0.0061440
        k(  418) = (   0.0000000  -0.4525483   0.6222540), wk =   0.0030720
        k(  419) = (  -0.0282843  -0.5374012   0.7071068), wk =   0.0030720
        k(  420) = (   0.0000000  -0.5091169   0.6788225), wk =   0.0030720
        k(  421) = (   0.4525483   0.2262742   0.0000000), wk =   0.0030720
        k(  422) = (  -0.2262742  -0.4525483   0.6788225), wk =   0.0061440
        k(  423) = (  -0.1979899  -0.4242641   0.6505382), wk =   0.0061440
        k(  424) = (  -0.1697056  -0.3959798   0.6222540), wk =   0.0061440
        k(  425) = (  -0.1414214  -0.3676955   0.5939697), wk =   0.0061440
        k(  426) = (  -0.1979899  -0.4808326   0.7071068), wk =   0.0030720
        k(  427) = (  -0.1697056  -0.4525483   0.6788225), wk =   0.0061440
        k(  428) = (  -0.1414214  -0.4242641   0.6505382), wk =   0.0061440
        k(  429) = (  -0.1131371  -0.3959798   0.6222540), wk =   0.0061440
        k(  430) = (  -0.0848528  -0.3676955   0.5939697), wk =   0.0061440
        k(  431) = (  -0.0565685  -0.3394113   0.5656854), wk =   0.0061440
        k(  432) = (  -0.0282843  -0.3111270   0.5374012), wk =   0.0061440
        k(  433) = (   0.0000000  -0.2828427   0.5091169), wk =   0.0030720
        k(  434) = (  -0.1414214  -0.4808326   0.7071068), wk =   0.0030720
        k(  435) = (  -0.1131371  -0.4525483   0.6788225), wk =   0.0061440
        k(  436) = (  -0.0848528  -0.4242641   0.6505382), wk =   0.0061440
        k(  437) = (  -0.0565685  -0.3959798   0.6222540), wk =   0.0061440
        k(  438) = (  -0.0282843  -0.3676955   0.5939697), wk =   0.0061440
        k(  439) = (   0.0000000  -0.3394113   0.5656854), wk =   0.0030720
        k(  440) = (  -0.0848528  -0.4808326   0.7071068), wk =   0.0030720
        k(  441) = (  -0.0565685  -0.4525483   0.6788225), wk =   0.0061440
        k(  442) = (  -0.0282843  -0.4242641   0.6505382), wk =   0.0061440
        k(  443) = (  -0.0000000  -0.3959798   0.6222540), wk =   0.0030720
        k(  444) = (  -0.0282843  -0.4808326   0.7071068), wk =   0.0030720
        k(  445) = (   0.0000000  -0.4525483   0.6788225), wk =   0.0030720
        k(  446) = (  -0.1414214  -0.4242641   0.7071068), wk =   0.0030720
        k(  447) = (  -0.1131371  -0.3959798   0.6788225), wk =   0.0061440
        k(  448) = (  -0.0848528  -0.3676955   0.6505382), wk =   0.0061440
        k(  449) = (  -0.0848528  -0.4242641   0.7071068), wk =   0.0030720
        k(  450) = (  -0.0565685  -0.3959798   0.6788225), wk =   0.0061440
        k(  451) = (  -0.0282843  -0.3676955   0.6505382), wk =   0.0061440
        k(  452) = (  -0.0000000  -0.3394113   0.6222540), wk =   0.0030720
        k(  453) = (  -0.0282843  -0.4242641   0.7071068), wk =   0.0030720
        k(  454) = (  -0.0000000  -0.3959798   0.6788225), wk =   0.0030720
        k(  455) = (  -0.0282843  -0.3676955   0.7071068), wk =   0.0030720

                       cryst. coord.
        k(    1) = (   0.0000000   0.0000000   0.0000000), wk =   0.0001280
        k(    2) = (   0.0000000   0.0000000   0.0400000), wk =   0.0010240
        k(    3) = (   0.0000000   0.0000000   0.0800000), wk =   0.0010240
        k(    4) = (   0.0000000   0.0000000   0.1200000), wk =   0.0010240
        k(    5) = (   0.0000000   0.0000000   0.1600000), wk =   0.0010240
        k(    6) = (   0.0000000   0.0000000   0.2000000), wk =   0.0010240
        k(    7) = (   0.0000000   0.0000000   0.2400000), wk =   0.0010240
        k(    8) = (   0.0000000   0.0000000   0.2800000), wk =   0.0010240
        k(    9) = (   0.0000000   0.0000000   0.3200000), wk =   0.0010240
        k(   10) = (   0.0000000   0.0000000   0.3600000), wk =   0.0010240
        k(   11) = (   0.0000000   0.0000000   0.4000000), wk =   0.0010240
        k(   12) = (   0.0000000   0.0000000   0.4400000), wk =   0.0010240
        k(   13) = (   0.0000000   0.0000000   0.4800000), wk =   0.0010240
        k(   14) = (   0.0000000   0.0400000   0.0400000), wk =   0.0007680
        k(   15) = (   0.0000000   0.0400000   0.0800000), wk =   0.0030720
        k(   16) = (   0.0000000   0.0400000   0.1200000), wk =   0.0030720
        k(   17) = (   0.0000000   0.0400000   0.1600000), wk =   0.0030720
        k(   18) = (   0.0000000   0.0400000   0.2000000), wk =   0.0030720
        k(   19) = (   0.0000000   0.0400000   0.2400000), wk =   0.0030720
        k(   20) = (   0.0000000   0.0400000   0.2800000), wk =   0.0030720
        k(   21) = (   0.0000000   0.0400000   0.3200000), wk =   0.0030720
        k(   22) = (   0.0000000   0.0400000   0.3600000), wk =   0.0030720
        k(   23) = (   0.0000000   0.0400000   0.4000000), wk =   0.0030720
        k(   24) = (   0.0000000   0.0400000   0.4400000), wk =   0.0030720
        k(   25) = (   0.0000000   0.0400000   0.4800000), wk =   0.0030720
        k(   26) = (   0.0000000   0.0400000  -0.4800000), wk =   0.0030720
        k(   27) = (   0.0000000   0.0400000  -0.4400000), wk =   0.0030720
        k(   28) = (   0.0000000   0.0400000  -0.4000000), wk =   0.0030720
        k(   29) = (   0.0000000   0.0400000  -0.3600000), wk =   0.0030720
        k(   30) = (   0.0000000   0.0400000  -0.3200000), wk =   0.0030720
        k(   31) = (   0.0000000   0.0400000  -0.2800000), wk =   0.0030720
        k(   32) = (   0.0000000   0.0400000  -0.2400000), wk =   0.0030720
        k(   33) = (   0.0000000   0.0400000  -0.2000000), wk =   0.0030720
        k(   34) = (   0.0000000   0.0400000  -0.1600000), wk =   0.0030720
        k(   35) = (   0.0000000   0.0400000  -0.1200000), wk =   0.0030720
        k(   36) = (   0.0000000   0.0400000  -0.0800000), wk =   0.0030720
        k(   37) = (   0.0000000   0.0400000  -0.0400000), wk =   0.0015360
        k(   38) = (   0.0000000   0.0800000   0.0800000), wk =   0.0007680
        k(   39) = (   0.0000000   0.0800000   0.1200000), wk =   0.0030720
        k(   40) = (   0.0000000   0.0800000   0.1600000), wk =   0.0030720
        k(   41) = (   0.0000000   0.0800000   0.2000000), wk =   0.0030720
        k(   42) = (   0.0000000   0.0800000   0.2400000), wk =   0.0030720
        k(   43) = (   0.0000000   0.0800000   0.2800000), wk =   0.0030720
        k(   44) = (   0.0000000   0.0800000   0.3200000), wk =   0.0030720
        k(   45) = (   0.0000000   0.0800000   0.3600000), wk =   0.0030720
        k(   46) = (   0.0000000   0.0800000   0.4000000), wk =   0.0030720
        k(   47) = (   0.0000000   0.0800000   0.4400000), wk =   0.0030720
        k(   48) = (   0.0000000   0.0800000   0.4800000), wk =   0.0030720
        k(   49) = (   0.0000000   0.0800000  -0.4800000), wk =   0.0030720
        k(   50) = (   0.0000000   0.0800000  -0.4400000), wk =   0.0030720
        k(   51) = (   0.0000000   0.0800000  -0.4000000), wk =   0.0030720
        k(   52) = (   0.0000000   0.0800000  -0.3600000), wk =   0.0030720
        k(   53) = (   0.0000000   0.0800000  -0.3200000), wk =   0.0030720
        k(   54) = (   0.0000000   0.0800000  -0.2800000), wk =   0.0030720
        k(   55) = (   0.0000000   0.0800000  -0.2400000), wk =   0.0030720
        k(   56) = (   0.0000000   0.0800000  -0.2000000), wk =   0.0030720
        k(   57) = (   0.0000000   0.0800000  -0.1600000), wk =   0.0030720
        k(   58) = (   0.0000000   0.0800000  -0.1200000), wk =   0.0030720
        k(   59) = (   0.0000000   0.0800000  -0.0800000), wk =   0.0015360
        k(   60) = (   0.0000000   0.1200000   0.1200000), wk =   0.0007680
        k(   61) = (   0.0000000   0.1200000   0.1600000), wk =   0.0030720
        k(   62) = (   0.0000000   0.1200000   0.2000000), wk =   0.0030720
        k(   63) = (   0.0000000   0.1200000   0.2400000), wk =   0.0030720
        k(   64) = (   0.0000000   0.1200000   0.2800000), wk =   0.0030720
        k(   65) = (   0.0000000   0.1200000   0.3200000), wk =   0.0030720
        k(   66) = (   0.0000000   0.1200000   0.3600000), wk =   0.0030720
        k(   67) = (   0.0000000   0.1200000   0.4000000), wk =   0.0030720
        k(   68) = (   0.0000000   0.1200000   0.4400000), wk =   0.0030720
        k(   69) = (   0.0000000   0.1200000   0.4800000), wk =   0.0030720
        k(   70) = (   0.0000000   0.1200000  -0.4800000), wk =   0.0030720
        k(   71) = (   0.0000000   0.1200000  -0.4400000), wk =   0.0030720
        k(   72) = (   0.0000000   0.1200000  -0.4000000), wk =   0.0030720
        k(   73) = (   0.0000000   0.1200000  -0.3600000), wk =   0.0030720
        k(   74) = (   0.0000000   0.1200000  -0.3200000), wk =   0.0030720
        k(   75) = (   0.0000000   0.1200000  -0.2800000), wk =   0.0030720
        k(   76) = (   0.0000000   0.1200000  -0.2400000), wk =   0.0030720
        k(   77) = (   0.0000000   0.1200000  -0.2000000), wk =   0.0030720
        k(   78) = (   0.0000000   0.1200000  -0.1600000), wk =   0.0030720
        k(   79) = (   0.0000000   0.1200000  -0.1200000), wk =   0.0015360
        k(   80) = (   0.0000000   0.1600000   0.1600000), wk =   0.0007680
        k(   81) = (   0.0000000   0.1600000   0.2000000), wk =   0.0030720
        k(   82) = (   0.0000000   0.1600000   0.2400000), wk =   0.0030720
        k(   83) = (   0.0000000   0.1600000   0.2800000), wk =   0.0030720
        k(   84) = (   0.0000000   0.1600000   0.3200000), wk =   0.0030720
        k(   85) = (   0.0000000   0.1600000   0.3600000), wk =   0.0030720
        k(   86) = (   0.0000000   0.1600000   0.4000000), wk =   0.0030720
        k(   87) = (   0.0000000   0.1600000   0.4400000), wk =   0.0030720
        k(   88) = (   0.0000000   0.1600000   0.4800000), wk =   0.0030720
        k(   89) = (   0.0000000   0.1600000  -0.4800000), wk =   0.0030720
        k(   90) = (   0.0000000   0.1600000  -0.4400000), wk =   0.0030720
        k(   91) = (   0.0000000   0.1600000  -0.4000000), wk =   0.0030720
        k(   92) = (   0.0000000   0.1600000  -0.3600000), wk =   0.0030720
        k(   93) = (   0.0000000   0.1600000  -0.3200000), wk =   0.0030720
        k(   94) = (   0.0000000   0.1600000  -0.2800000), wk =   0.0030720
        k(   95) = (   0.0000000   0.1600000  -0.2400000), wk =   0.0030720
        k(   96) = (   0.0000000   0.1600000  -0.2000000), wk =   0.0030720
        k(   97) = (   0.0000000   0.1600000  -0.1600000), wk =   0.0015360
        k(   98) = (   0.0000000   0.2000000   0.2000000), wk =   0.0007680
        k(   99) = (   0.0000000   0.2000000   0.2400000), wk =   0.0030720
        k(  100) = (   0.0000000   0.2000000   0.2800000), wk =   0.0030720
        k(  101) = (   0.0000000   0.2000000   0.3200000), wk =   0.0030720
        k(  102) = (   0.0000000   0.2000000   0.3600000), wk =   0.0030720
        k(  103) = (   0.0000000   0.2000000   0.4000000), wk =   0.0030720
        k(  104) = (   0.0000000   0.2000000   0.4400000), wk =   0.0030720
        k(  105) = (   0.0000000   0.2000000   0.4800000), wk =   0.0030720
        k(  106) = (   0.0000000   0.2000000  -0.4800000), wk =   0.0030720
        k(  107) = (   0.0000000   0.2000000  -0.4400000), wk =   0.0030720
        k(  108) = (   0.0000000   0.2000000  -0.4000000), wk =   0.0030720
        k(  109) = (   0.0000000   0.2000000  -0.3600000), wk =   0.0030720
        k(  110) = (   0.0000000   0.2000000  -0.3200000), wk =   0.0030720
        k(  111) = (   0.0000000   0.2000000  -0.2800000), wk =   0.0030720
        k(  112) = (   0.0000000   0.2000000  -0.2400000), wk =   0.0030720
        k(  113) = (   0.0000000   0.2000000  -0.2000000), wk =   0.0015360
        k(  114) = (   0.0000000   0.2400000   0.2400000), wk =   0.0007680
        k(  115) = (   0.0000000   0.2400000   0.2800000), wk =   0.0030720
        k(  116) = (   0.0000000   0.2400000   0.3200000), wk =   0.0030720
        k(  117) = (   0.0000000   0.2400000   0.3600000), wk =   0.0030720
        k(  118) = (   0.0000000   0.2400000   0.4000000), wk =   0.0030720
        k(  119) = (   0.0000000   0.2400000   0.4400000), wk =   0.0030720
        k(  120) = (   0.0000000   0.2400000   0.4800000), wk =   0.0030720
        k(  121) = (   0.0000000   0.2400000  -0.4800000), wk =   0.0030720
        k(  122) = (   0.0000000   0.2400000  -0.4400000), wk =   0.0030720
        k(  123) = (   0.0000000   0.2400000  -0.4000000), wk =   0.0030720
        k(  124) = (   0.0000000   0.2400000  -0.3600000), wk =   0.0030720
        k(  125) = (   0.0000000   0.2400000  -0.3200000), wk =   0.0030720
        k(  126) = (   0.0000000   0.2400000  -0.2800000), wk =   0.0030720
        k(  127) = (   0.0000000   0.2400000  -0.2400000), wk =   0.0015360
        k(  128) = (   0.0000000   0.2800000   0.2800000), wk =   0.0007680
        k(  129) = (   0.0000000   0.2800000   0.3200000), wk =   0.0030720
        k(  130) = (   0.0000000   0.2800000   0.3600000), wk =   0.0030720
        k(  131) = (   0.0000000   0.2800000   0.4000000), wk =   0.0030720
        k(  132) = (   0.0000000   0.2800000   0.4400000), wk =   0.0030720
        k(  133) = (   0.0000000   0.2800000   0.4800000), wk =   0.0030720
        k(  134) = (   0.0000000   0.2800000  -0.4800000), wk =   0.0030720
        k(  135) = (   0.0000000   0.2800000  -0.4400000), wk =   0.0030720
        k(  136) = (   0.0000000   0.2800000  -0.4000000), wk =   0.0030720
        k(  137) = (   0.0000000   0.2800000  -0.3600000), wk =   0.0030720
        k(  138) = (   0.0000000   0.2800000  -0.3200000), wk =   0.0030720
        k(  139) = (   0.0000000   0.2800000  -0.2800000), wk =   0.0015360
        k(  140) = (   0.0000000   0.3200000   0.3200000), wk =   0.0007680
        k(  141) = (   0.0000000   0.3200000   0.3600000), wk =   0.0030720
        k(  142) = (   0.0000000   0.3200000   0.4000000), wk =   0.0030720
        k(  143) = (   0.0000000   0.3200000   0.4400000), wk =   0.0030720
        k(  144) = (   0.0000000   0.3200000   0.4800000), wk =   0.0030720
        k(  145) = (   0.0000000   0.3200000  -0.4800000), wk =   0.0030720
        k(  146) = (   0.0000000   0.3200000  -0.4400000), wk =   0.0030720
        k(  147) = (   0.0000000   0.3200000  -0.4000000), wk =   0.0030720
        k(  148) = (   0.0000000   0.3200000  -0.3600000), wk =   0.0030720
        k(  149) = (   0.0000000   0.3200000  -0.3200000), wk =   0.0015360
        k(  150) = (   0.0000000   0.3600000   0.3600000), wk =   0.0007680
        k(  151) = (   0.0000000   0.3600000   0.4000000), wk =   0.0030720
        k(  152) = (   0.0000000   0.3600000   0.4400000), wk =   0.0030720
        k(  153) = (   0.0000000   0.3600000   0.4800000), wk =   0.0030720
        k(  154) = (   0.0000000   0.3600000  -0.4800000), wk =   0.0030720
        k(  155) = (   0.0000000   0.3600000  -0.4400000), wk =   0.0030720
        k(  156) = (   0.0000000   0.3600000  -0.4000000), wk =   0.0030720
        k(  157) = (   0.0000000   0.3600000  -0.3600000), wk =   0.0015360
        k(  158) = (   0.0000000   0.4000000   0.4000000), wk =   0.0007680
        k(  159) = (   0.0000000   0.4000000   0.4400000), wk =   0.0030720
        k(  160) = (   0.0000000   0.4000000   0.4800000), wk =   0.0030720
        k(  161) = (   0.0000000   0.4000000  -0.4800000), wk =   0.0030720
        k(  162) = (   0.0000000   0.4000000  -0.4400000), wk =   0.0030720
        k(  163) = (   0.0000000   0.4000000  -0.4000000), wk =   0.0015360
        k(  164) = (   0.0000000   0.4400000   0.4400000), wk =   0.0007680
        k(  165) = (   0.0000000   0.4400000   0.4800000), wk =   0.0030720
        k(  166) = (   0.0000000   0.4400000  -0.4800000), wk =   0.0030720
        k(  167) = (   0.0000000   0.4400000  -0.4400000), wk =   0.0015360
        k(  168) = (   0.0000000   0.4800000   0.4800000), wk =   0.0007680
        k(  169) = (   0.0000000   0.4800000  -0.4800000), wk =   0.0015360
        k(  170) = (   0.0400000   0.0800000   0.1200000), wk =   0.0030720
        k(  171) = (   0.0400000   0.0800000   0.1600000), wk =   0.0061440
        k(  172) = (   0.0400000   0.0800000   0.2000000), wk =   0.0061440
        k(  173) = (   0.0400000   0.0800000   0.2400000), wk =   0.0061440
        k(  174) = (   0.0400000   0.0800000   0.2800000), wk =   0.0061440
        k(  175) = (   0.0400000   0.0800000   0.3200000), wk =   0.0061440
        k(  176) = (   0.0400000   0.0800000   0.3600000), wk =   0.0061440
        k(  177) = (   0.0400000   0.0800000   0.4000000), wk =   0.0061440
        k(  178) = (   0.0400000   0.0800000   0.4400000), wk =   0.0061440
        k(  179) = (   0.0400000   0.0800000   0.4800000), wk =   0.0061440
        k(  180) = (   0.0400000   0.0800000  -0.4800000), wk =   0.0061440
        k(  181) = (   0.0400000   0.1200000   0.1600000), wk =   0.0030720
        k(  182) = (   0.0400000   0.1200000   0.2000000), wk =   0.0061440
        k(  183) = (   0.0400000   0.1200000   0.2400000), wk =   0.0061440
        k(  184) = (   0.0400000   0.1200000   0.2800000), wk =   0.0061440
        k(  185) = (   0.0400000   0.1200000   0.3200000), wk =   0.0061440
        k(  186) = (   0.0400000   0.1200000   0.3600000), wk =   0.0061440
        k(  187) = (   0.0400000   0.1200000   0.4000000), wk =   0.0061440
        k(  188) = (   0.0400000   0.1200000   0.4400000), wk =   0.0061440
        k(  189) = (   0.0400000   0.1200000   0.4800000), wk =   0.0061440
        k(  190) = (   0.0400000   0.1200000  -0.4800000), wk =   0.0061440
        k(  191) = (   0.0400000   0.1200000  -0.4400000), wk =   0.0061440
        k(  192) = (   0.0400000   0.1200000  -0.4000000), wk =   0.0061440
        k(  193) = (   0.0400000   0.1200000  -0.3600000), wk =   0.0061440
        k(  194) = (   0.0400000   0.1200000  -0.3200000), wk =   0.0061440
        k(  195) = (   0.0400000   0.1200000  -0.2800000), wk =   0.0061440
        k(  196) = (   0.0400000   0.1200000  -0.2400000), wk =   0.0061440
        k(  197) = (   0.0400000   0.1200000  -0.2000000), wk =   0.0061440
        k(  198) = (   0.0400000   0.1200000  -0.1600000), wk =   0.0061440
        k(  199) = (   0.0400000   0.1200000  -0.1200000), wk =   0.0061440
        k(  200) = (   0.0400000   0.1200000  -0.0800000), wk =   0.0030720
        k(  201) = (   0.0400000   0.1600000   0.2000000), wk =   0.0030720
        k(  202) = (   0.0400000   0.1600000   0.2400000), wk =   0.0061440
        k(  203) = (   0.0400000   0.1600000   0.2800000), wk =   0.0061440
        k(  204) = (   0.0400000   0.1600000   0.3200000), wk =   0.0061440
        k(  205) = (   0.0400000   0.1600000   0.3600000), wk =   0.0061440
        k(  206) = (   0.0400000   0.1600000   0.4000000), wk =   0.0061440
        k(  207) = (   0.0400000   0.1600000   0.4400000), wk =   0.0061440
        k(  208) = (   0.0400000   0.1600000   0.4800000), wk =   0.0061440
        k(  209) = (   0.0400000   0.1600000  -0.4800000), wk =   0.0061440
        k(  210) = (   0.0400000   0.1600000  -0.4400000), wk =   0.0061440
        k(  211) = (   0.0400000   0.1600000  -0.4000000), wk =   0.0061440
        k(  212) = (   0.0400000   0.1600000  -0.3600000), wk =   0.0061440
        k(  213) = (   0.0400000   0.1600000  -0.3200000), wk =   0.0061440
        k(  214) = (   0.0400000   0.1600000  -0.2800000), wk =   0.0061440
        k(  215) = (   0.0400000   0.1600000  -0.2400000), wk =   0.0061440
        k(  216) = (   0.0400000   0.1600000  -0.2000000), wk =   0.0061440
        k(  217) = (   0.0400000   0.1600000  -0.1600000), wk =   0.0061440
        k(  218) = (   0.0400000   0.1600000  -0.1200000), wk =   0.0030720
        k(  219) = (   0.0400000   0.2000000   0.2400000), wk =   0.0030720
        k(  220) = (   0.0400000   0.2000000   0.2800000), wk =   0.0061440
        k(  221) = (   0.0400000   0.2000000   0.3200000), wk =   0.0061440
        k(  222) = (   0.0400000   0.2000000   0.3600000), wk =   0.0061440
        k(  223) = (   0.0400000   0.2000000   0.4000000), wk =   0.0061440
        k(  224) = (   0.0400000   0.2000000   0.4400000), wk =   0.0061440
        k(  225) = (   0.0400000   0.2000000   0.4800000), wk =   0.0061440
        k(  226) = (   0.0400000   0.2000000  -0.4800000), wk =   0.0061440
        k(  227) = (   0.0400000   0.2000000  -0.4400000), wk =   0.0061440
        k(  228) = (   0.0400000   0.2000000  -0.4000000), wk =   0.0061440
        k(  229) = (   0.0400000   0.2000000  -0.3600000), wk =   0.0061440
        k(  230) = (   0.0400000   0.2000000  -0.3200000), wk =   0.0061440
        k(  231) = (   0.0400000   0.2000000  -0.2800000), wk =   0.0061440
        k(  232) = (   0.0400000   0.2000000  -0.2400000), wk =   0.0061440
        k(  233) = (   0.0400000   0.2000000  -0.2000000), wk =   0.0061440
        k(  234) = (   0.0400000   0.2000000  -0.1600000), wk =   0.0030720
        k(  235) = (   0.0400000   0.2400000   0.2800000), wk =   0.0030720
        k(  236) = (   0.0400000   0.2400000   0.3200000), wk =   0.0061440
        k(  237) = (   0.0400000   0.2400000   0.3600000), wk =   0.0061440
        k(  238) = (   0.0400000   0.2400000   0.4000000), wk =   0.0061440
        k(  239) = (   0.0400000   0.2400000   0.4400000), wk =   0.0061440
        k(  240) = (   0.0400000   0.2400000   0.4800000), wk =   0.0061440
        k(  241) = (   0.0400000   0.2400000  -0.4800000), wk =   0.0061440
        k(  242) = (   0.0400000   0.2400000  -0.4400000), wk =   0.0061440
        k(  243) = (   0.0400000   0.2400000  -0.4000000), wk =   0.0061440
        k(  244) = (   0.0400000   0.2400000  -0.3600000), wk =   0.0061440
        k(  245) = (   0.0400000   0.2400000  -0.3200000), wk =   0.0061440
        k(  246) = (   0.0400000   0.2400000  -0.2800000), wk =   0.0061440
        k(  247) = (   0.0400000   0.2400000  -0.2400000), wk =   0.0061440
        k(  248) = (   0.0400000   0.2400000  -0.2000000), wk =   0.0030720
        k(  249) = (   0.0400000   0.2800000   0.3200000), wk =   0.0030720
[...]
    13.7874  14.4427

     occupation numbers 
     1.0000   1.0000   1.0000   1.0000   1.0000   1.0000   1.0000   1.0000
     1.0000   1.0000   1.0000   1.0000   1.0000   1.0000   0.0000   0.0000
     0.0000   0.0000

          k =-0.0283-0.4808 0.6505 ( 11033 PWs)   bands (ev):

   -12.4214 -12.4151 -12.2963 -12.2684 -12.2204 -12.2041 -12.1918 -12.1663
   -12.0506 -12.0443   0.0573   0.5333   5.8014   6.2352  10.2057  11.0213
    13.6773  14.0452

     occupation numbers 
     1.0000   1.0000   1.0000   1.0000   1.0000   1.0000   1.0000   1.0000
     1.0000   1.0000   1.0000   1.0000   1.0000   1.0000   0.0000   0.0000
     0.0000   0.0000

          k = 0.0000-0.4525 0.6223 ( 11054 PWs)   bands (ev):

   -12.4235 -12.4148 -12.2959 -12.2578 -12.2215 -12.2054 -12.2005 -12.1663
   -12.0508 -12.0421   0.0130   0.5840   5.6874   6.3085  10.2220  11.4722
    13.5078  13.6996

     occupation numbers 
     1.0000   1.0000   1.0000   1.0000   1.0000   1.0000   1.0000   1.0000
     1.0000   1.0000   1.0000   1.0000   1.0000   1.0000   0.0000   0.0000
     0.0000   0.0000

          k =-0.0283-0.5374 0.7071 ( 11033 PWs)   bands (ev):

   -12.4159 -12.4155 -12.3000 -12.2856 -12.2176 -12.2037 -12.1767 -12.1631
   -12.0503 -12.0501   0.1056   0.4710   6.0725   6.1363  10.1529  10.1809
    14.2600  14.5732

     occupation numbers 
     1.0000   1.0000   1.0000   1.0000   1.0000   1.0000   1.0000   1.0000
     1.0000   1.0000   1.0000   1.0000   1.0000   1.0000   0.0000   0.0000
     0.0000   0.0000

          k = 0.0000-0.5091 0.6788 ( 11034 PWs)   bands (ev):

   -12.4189 -12.4156 -12.2936 -12.2824 -12.2132 -12.2095 -12.1795 -12.1689
   -12.0502 -12.0469   0.2159   0.3636   5.9408   6.1542  10.1845  10.5736
    14.1031  14.1921

     occupation numbers 
     1.0000   1.0000   1.0000   1.0000   1.0000   1.0000   1.0000   1.0000
     1.0000   1.0000   1.0000   1.0000   1.0000   1.0000   0.0000   0.0000
     0.0000   0.0000

          k = 0.4525 0.2263 0.0000 ( 11070 PWs)   bands (ev):

   -12.4118 -12.4078 -12.3335 -12.2690 -12.2390 -12.2122 -12.1543 -12.1378
   -12.0583 -12.0575  -1.0598   1.9099   6.0685   6.9250  10.1328  10.8605
    12.8042  13.7953

     occupation numbers 
     1.0000   1.0000   1.0000   1.0000   1.0000   1.0000   1.0000   1.0000
     1.0000   1.0000   1.0000   1.0000   1.0000   1.0000   0.0000   0.0000
     0.0000   0.0000

          k =-0.2263-0.4525 0.6788 ( 11047 PWs)   bands (ev):

   -12.4157 -12.4096 -12.3249 -12.2636 -12.2342 -12.2160 -12.1614 -12.1462
   -12.0565 -12.0523  -0.8822   1.6526   5.9166   6.8162  10.1927  11.1213
    12.7664  13.9234

     occupation numbers 
     1.0000   1.0000   1.0000   1.0000   1.0000   1.0000   1.0000   1.0000
     1.0000   1.0000   1.0000   1.0000   1.0000   1.0000   0.0000   0.0000
     0.0000   0.0000

          k =-0.1980-0.4243 0.6505 ( 11052 PWs)   bands (ev):

   -12.4190 -12.4108 -12.3173 -12.2581 -12.2318 -12.2175 -12.1696 -12.1524
   -12.0553 -12.0482  -0.7087   1.4156   5.8038   6.7235  10.2097  11.4032
    12.8019  13.9324

     occupation numbers 
     1.0000   1.0000   1.0000   1.0000   1.0000   1.0000   1.0000   1.0000
     1.0000   1.0000   1.0000   1.0000   1.0000   1.0000   0.0000   0.0000
     0.0000   0.0000

          k =-0.1697-0.3960 0.6223 ( 11052 PWs)   bands (ev):

   -12.4214 -12.4116 -12.3116 -12.2531 -12.2313 -12.2174 -12.1771 -12.1565
   -12.0545 -12.0453  -0.5603   1.2231   5.7295   6.6565  10.2112  11.6201
    12.9497  13.8037

     occupation numbers 
     1.0000   1.0000   1.0000   1.0000   1.0000   1.0000   1.0000   1.0000
     1.0000   1.0000   1.0000   1.0000   1.0000   1.0000   0.0000   0.0000
     0.0000   0.0000

          k =-0.1414-0.3677 0.5940 ( 11044 PWs)   bands (ev):

   -12.4226 -12.4119 -12.3086 -12.2499 -12.2312 -12.2172 -12.1816 -12.1585
   -12.0541 -12.0439  -0.4700   1.1101   5.6927   6.6216  10.2096  11.7262
    13.1947  13.5696

     occupation numbers 
     1.0000   1.0000   1.0000   1.0000   1.0000   1.0000   1.0000   1.0000
     1.0000   1.0000   1.0000   1.0000   1.0000   1.0000   0.0000   0.0000
     0.0000   0.0000

          k =-0.1980-0.4808 0.7071 ( 11054 PWs)   bands (ev):

   -12.4150 -12.4110 -12.3250 -12.2579 -12.2288 -12.2253 -12.1658 -12.1433
   -12.0551 -12.0530  -0.7959   1.5414   5.9650   6.6423  10.3465  10.7537
    12.8800  14.2103

     occupation numbers 
     1.0000   1.0000   1.0000   1.0000   1.0000   1.0000   1.0000   1.0000
     1.0000   1.0000   1.0000   1.0000   1.0000   1.0000   0.0000   0.0000
     0.0000   0.0000

          k =-0.1697-0.4525 0.6788 ( 11045 PWs)   bands (ev):

   -12.4184 -12.4126 -12.3158 -12.2522 -12.2326 -12.2208 -12.1735 -12.1518
   -12.0534 -12.0487  -0.6169   1.3083   5.8422   6.5419  10.4095  11.0504
    12.8267  14.1980

     occupation numbers 
     1.0000   1.0000   1.0000   1.0000   1.0000   1.0000   1.0000   1.0000
     1.0000   1.0000   1.0000   1.0000   1.0000   1.0000   0.0000   0.0000
     0.0000   0.0000

          k =-0.1414-0.4243 0.6505 ( 11045 PWs)   bands (ev):

   -12.4212 -12.4136 -12.3080 -12.2471 -12.2340 -12.2184 -12.1814 -12.1582
   -12.0524 -12.0452  -0.4530   1.1057   5.7480   6.4719  10.4240  11.3835
    12.8391  14.0128

     occupation numbers 
     1.0000   1.0000   1.0000   1.0000   1.0000   1.0000   1.0000   1.0000
     1.0000   1.0000   1.0000   1.0000   1.0000   1.0000   0.0000   0.0000
     0.0000   0.0000

          k =-0.1131-0.3960 0.6223 ( 11035 PWs)   bands (ev):

   -12.4230 -12.4141 -12.3028 -12.2441 -12.2317 -12.2192 -12.1873 -12.1621
   -12.0518 -12.0431  -0.3361   0.9672   5.6837   6.4404  10.4281  11.6449
    12.9508  13.7136

     occupation numbers 
     1.0000   1.0000   1.0000   1.0000   1.0000   1.0000   1.0000   1.0000
     1.0000   1.0000   1.0000   1.0000   1.0000   1.0000   0.0000   0.0000
     0.0000   0.0000

          k =-0.0849-0.3677 0.5940 ( 11047 PWs)   bands (ev):

   -12.4237 -12.4142 -12.3011 -12.2435 -12.2285 -12.2213 -12.1896 -12.1633
   -12.0516 -12.0424  -0.3092   0.9361   5.6518   6.4500  10.4286  11.7670
    13.0758  13.4871

     occupation numbers 
     1.0000   1.0000   1.0000   1.0000   1.0000   1.0000   1.0000   1.0000
     1.0000   1.0000   1.0000   1.0000   1.0000   1.0000   0.0000   0.0000
     0.0000   0.0000

          k =-0.0566-0.3394 0.5657 ( 11039 PWs)   bands (ev):

   -12.4231 -12.4139 -12.3032 -12.2457 -12.2284 -12.2210 -12.1871 -12.1620
   -12.0518 -12.0432  -0.3855   1.0257   5.6559   6.4988  10.4220  11.7361
    12.9130  13.6622

     occupation numbers 
     1.0000   1.0000   1.0000   1.0000   1.0000   1.0000   1.0000   1.0000
     1.0000   1.0000   1.0000   1.0000   1.0000   1.0000   0.0000   0.0000
     0.0000   0.0000

          k =-0.0283-0.3111 0.5374 ( 11041 PWs)   bands (ev):

   -12.4215 -12.4131 -12.3084 -12.2512 -12.2265 -12.2227 -12.1798 -12.1586
   -12.0526 -12.0453  -0.5302   1.2000   5.6996   6.5819  10.3970  11.5654
    12.7587  13.9056

     occupation numbers 
     1.0000   1.0000   1.0000   1.0000   1.0000   1.0000   1.0000   1.0000
     1.0000   1.0000   1.0000   1.0000   1.0000   1.0000   0.0000   0.0000
     0.0000   0.0000

          k = 0.0000-0.2828 0.5091 ( 11054 PWs)   bands (ev):

   -12.4189 -12.4117 -12.3160 -12.2576 -12.2281 -12.2215 -12.1703 -12.1534
   -12.0540 -12.0486  -0.7037   1.4176   5.7860   6.6914  10.3303  11.3254
    12.7226  14.0052

     occupation numbers 
     1.0000   1.0000   1.0000   1.0000   1.0000   1.0000   1.0000   1.0000
     1.0000   1.0000   1.0000   1.0000   1.0000   1.0000   0.0000   0.0000
     0.0000   0.0000

          k =-0.1414-0.4808 0.7071 ( 11042 PWs)   bands (ev):

   -12.4173 -12.4139 -12.3150 -12.2456 -12.2452 -12.2114 -12.1784 -12.1509
   -12.0521 -12.0497  -0.5088   1.1757   5.9102   6.3989  10.4806  10.6766
    13.0625  14.4073

     occupation numbers 
     1.0000   1.0000   1.0000   1.0000   1.0000   1.0000   1.0000   1.0000
     1.0000   1.0000   1.0000   1.0000   1.0000   1.0000   0.0000   0.0000
     0.0000   0.0000

          k =-0.1131-0.4525 0.6788 ( 11039 PWs)   bands (ev):

   -12.4201 -12.4153 -12.3052 -12.2483 -12.2396 -12.2080 -12.1863 -12.1596
   -12.0506 -12.0462  -0.3327   0.9682   5.8154   6.3119  10.5357  11.0220
    12.9934  14.1852

     occupation numbers 
     1.0000   1.0000   1.0000   1.0000   1.0000   1.0000   1.0000   1.0000
     1.0000   1.0000   1.0000   1.0000   1.0000   1.0000   0.0000   0.0000
     0.0000   0.0000

          k =-0.0849-0.4243 0.6505 ( 11032 PWs)   bands (ev):

   -12.4224 -12.4159 -12.2979 -12.2487 -12.2341 -12.2079 -12.1931 -12.1656
   -12.0499 -12.0435  -0.1909   0.8086   5.7319   6.2766  10.5470  11.4079
    12.9711  13.8331

     occupation numbers 
     1.0000   1.0000   1.0000   1.0000   1.0000   1.0000   1.0000   1.0000
     1.0000   1.0000   1.0000   1.0000   1.0000   1.0000   0.0000   0.0000
     0.0000   0.0000

          k =-0.0566-0.3960 0.6223 ( 11047 PWs)   bands (ev):

   -12.4238 -12.4160 -12.2947 -12.2458 -12.2314 -12.2109 -12.1969 -12.1678
   -12.0497 -12.0420  -0.1379   0.7511   5.6682   6.2937  10.5516  11.7153
    13.0033  13.4874

     occupation numbers 
     1.0000   1.0000   1.0000   1.0000   1.0000   1.0000   1.0000   1.0000
     1.0000   1.0000   1.0000   1.0000   1.0000   1.0000   0.0000   0.0000
     0.0000   0.0000

          k =-0.0283-0.3677 0.5940 ( 11043 PWs)   bands (ev):

   -12.4241 -12.4156 -12.2960 -12.2404 -12.2349 -12.2130 -12.1965 -12.1667
   -12.0500 -12.0419  -0.2071   0.8285   5.6358   6.3563  10.5427  11.8418
    12.9298  13.4425

     occupation numbers 
     1.0000   1.0000   1.0000   1.0000   1.0000   1.0000   1.0000   1.0000
     1.0000   1.0000   1.0000   1.0000   1.0000   1.0000   0.0000   0.0000
     0.0000   0.0000

          k = 0.0000-0.3394 0.5657 ( 11039 PWs)   bands (ev):

   -12.4232 -12.4146 -12.3010 -12.2434 -12.2325 -12.2173 -12.1898 -12.1633
   -12.0509 -12.0430  -0.3547   0.9955   5.6444   6.4556  10.5013  11.7561
    12.7903  13.6894

     occupation numbers 
     1.0000   1.0000   1.0000   1.0000   1.0000   1.0000   1.0000   1.0000
     1.0000   1.0000   1.0000   1.0000   1.0000   1.0000   0.0000   0.0000
     0.0000   0.0000

          k =-0.0849-0.4808 0.7071 ( 11034 PWs)   bands (ev):

   -12.4185 -12.4163 -12.3035 -12.2612 -12.2325 -12.1976 -12.1917 -12.1605
   -12.0494 -12.0477  -0.2011   0.8156   5.9058   6.2007  10.5479  10.6265
    13.3446  14.3243

     occupation numbers 
     1.0000   1.0000   1.0000   1.0000   1.0000   1.0000   1.0000   1.0000
     1.0000   1.0000   1.0000   1.0000   1.0000   1.0000   0.0000   0.0000
     0.0000   0.0000

          k =-0.0566-0.4525 0.6788 ( 11032 PWs)   bands (ev):

   -12.4209 -12.4173 -12.2937 -12.2629 -12.2268 -12.1999 -12.1951 -12.1689
   -12.0484 -12.0449  -0.0358   0.6381   5.8305   6.1399  10.5866  11.0201
    13.2626  13.9406

     occupation numbers 
     1.0000   1.0000   1.0000   1.0000   1.0000   1.0000   1.0000   1.0000
     1.0000   1.0000   1.0000   1.0000   1.0000   1.0000   0.0000   0.0000
     0.0000   0.0000

          k =-0.0283-0.4243 0.6505 ( 11036 PWs)   bands (ev):

   -12.4229 -12.4172 -12.2892 -12.2590 -12.2236 -12.2058 -12.1977 -12.1721
   -12.0484 -12.0427   0.0402   0.5604   5.7385   6.1624  10.5956  11.4358
    13.2015  13.5352

     occupation numbers 
     1.0000   1.0000   1.0000   1.0000   1.0000   1.0000   1.0000   1.0000
     1.0000   1.0000   1.0000   1.0000   1.0000   1.0000   0.0000   0.0000
     0.0000   0.0000

          k =-0.0000-0.3960 0.6223 ( 11035 PWs)   bands (ev):

   -12.4240 -12.4167 -12.2909 -12.2499 -12.2277 -12.2047 -12.2039 -12.1704
   -12.0489 -12.0417  -0.0442   0.6517   5.6665   6.2405  10.5891  11.7545
    13.0761  13.3324

     occupation numbers 
     1.0000   1.0000   1.0000   1.0000   1.0000   1.0000   1.0000   1.0000
     1.0000   1.0000   1.0000   1.0000   1.0000   1.0000   0.0000   0.0000
     0.0000   0.0000

          k =-0.0283-0.4808 0.7071 ( 11036 PWs)   bands (ev):

   -12.4188 -12.4180 -12.2905 -12.2763 -12.2190 -12.2053 -12.1842 -12.1717
   -12.0477 -12.0470   0.1242   0.4641   5.9527   6.0513  10.5776  10.5974
    13.6902  14.0443

     occupation numbers 
     1.0000   1.0000   1.0000   1.0000   1.0000   1.0000   1.0000   1.0000
     1.0000   1.0000   1.0000   1.0000   1.0000   1.0000   0.0000   0.0000
     0.0000   0.0000

          k = 0.0000-0.4525 0.6788 ( 11033 PWs)   bands (ev):

   -12.4211 -12.4180 -12.2853 -12.2724 -12.2159 -12.2105 -12.1874 -12.1758
   -12.0476 -12.0445   0.2004   0.3909   5.8530   6.0646  10.5982  11.0222
    13.5685  13.6307

     occupation numbers 
     1.0000   1.0000   1.0000   1.0000   1.0000   1.0000   1.0000   1.0000
     1.0000   1.0000   1.0000   1.0000   1.0000   1.0000   0.0000   0.0000
     0.0000   0.0000

          k =-0.1414-0.4243 0.7071 ( 11058 PWs)   bands (ev):

   -12.4206 -12.4148 -12.3061 -12.2459 -12.2374 -12.2154 -12.1825 -12.1597
   -12.0509 -12.0459  -0.4368   1.0919   5.7567   6.4152  10.6026  11.2258
    12.7751  14.0635

     occupation numbers 
     1.0000   1.0000   1.0000   1.0000   1.0000   1.0000   1.0000   1.0000
     1.0000   1.0000   1.0000   1.0000   1.0000   1.0000   0.0000   0.0000
     0.0000   0.0000

          k =-0.1131-0.3960 0.6788 ( 11037 PWs)   bands (ev):

   -12.4225 -12.4160 -12.2982 -12.2424 -12.2385 -12.2116 -12.1909 -12.1656
   -12.0496 -12.0436  -0.2722   0.9022   5.7036   6.3193  10.6860  11.4764
    12.7956  13.7598

     occupation numbers 
     1.0000   1.0000   1.0000   1.0000   1.0000   1.0000   1.0000   1.0000
     1.0000   1.0000   1.0000   1.0000   1.0000   1.0000   0.0000   0.0000
     0.0000   0.0000

          k =-0.0849-0.3677 0.6505 ( 11040 PWs)   bands (ev):

   -12.4235 -12.4166 -12.2936 -12.2446 -12.2333 -12.2113 -12.1956 -12.1689
   -12.0490 -12.0423  -0.1621   0.7793   5.6788   6.2675  10.7127  11.6568
    12.9052  13.4445

     occupation numbers 
     1.0000   1.0000   1.0000   1.0000   1.0000   1.0000   1.0000   1.0000
     1.0000   1.0000   1.0000   1.0000   1.0000   1.0000   0.0000   0.0000
     0.0000   0.0000

          k =-0.0849-0.4243 0.7071 ( 11040 PWs)   bands (ev):

   -12.4214 -12.4175 -12.2948 -12.2531 -12.2336 -12.2026 -12.1951 -12.1682
   -12.0480 -12.0446  -0.1531   0.7696   5.7814   6.1806  10.8124  11.1407
    12.9318  13.8497

     occupation numbers 
     1.0000   1.0000   1.0000   1.0000   1.0000   1.0000   1.0000   1.0000
     1.0000   1.0000   1.0000   1.0000   1.0000   1.0000   0.0000   0.0000
     0.0000   0.0000

          k =-0.0566-0.3960 0.6788 ( 11039 PWs)   bands (ev):

   -12.4226 -12.4185 -12.2870 -12.2559 -12.2280 -12.2038 -12.1986 -12.1742
   -12.0470 -12.0431  -0.0081   0.6149   5.7550   6.1080  10.8990  11.4097
    12.9236  13.4650

     occupation numbers 
     1.0000   1.0000   1.0000   1.0000   1.0000   1.0000   1.0000   1.0000
     1.0000   1.0000   1.0000   1.0000   1.0000   1.0000   0.0000   0.0000
     0.0000   0.0000

          k =-0.0283-0.3677 0.6505 ( 11050 PWs)   bands (ev):

   -12.4233 -12.4185 -12.2853 -12.2542 -12.2269 -12.2064 -12.1996 -12.1752
   -12.0470 -12.0423   0.0180   0.5884   5.7229   6.1162  10.9001  11.6069
    12.9312  13.2431

     occupation numbers 
     1.0000   1.0000   1.0000   1.0000   1.0000   1.0000   1.0000   1.0000
     1.0000   1.0000   1.0000   1.0000   1.0000   1.0000   0.0000   0.0000
     0.0000   0.0000

          k =-0.0000-0.3394 0.6223 ( 11039 PWs)   bands (ev):

   -12.4233 -12.4177 -12.2900 -12.2483 -12.2325 -12.2051 -12.2000 -12.1716
   -12.0479 -12.0425  -0.1001   0.7143   5.6989   6.1943  10.8416  11.5981
    12.8273  13.4306

     occupation numbers 
     1.0000   1.0000   1.0000   1.0000   1.0000   1.0000   1.0000   1.0000
     1.0000   1.0000   1.0000   1.0000   1.0000   1.0000   0.0000   0.0000
     0.0000   0.0000

          k =-0.0283-0.4243 0.7071 ( 11037 PWs)   bands (ev):

   -12.4210 -12.4197 -12.2820 -12.2680 -12.2208 -12.2079 -12.1902 -12.1785
   -12.0458 -12.0446   0.1445   0.4530   5.8608   5.9944  10.9574  11.0579
    13.1923  13.5209

     occupation numbers 
     1.0000   1.0000   1.0000   1.0000   1.0000   1.0000   1.0000   1.0000
     1.0000   1.0000   1.0000   1.0000   1.0000   1.0000   0.0000   0.0000
     0.0000   0.0000

          k =-0.0000-0.3960 0.6788 ( 11032 PWs)   bands (ev):

   -12.4223 -12.4197 -12.2789 -12.2651 -12.2194 -12.2115 -12.1922 -12.1805
   -12.0458 -12.0433   0.1834   0.4158   5.8075   6.0015  10.9822  11.3803
    13.1176  13.1996

     occupation numbers 
     1.0000   1.0000   1.0000   1.0000   1.0000   1.0000   1.0000   1.0000
     1.0000   1.0000   1.0000   1.0000   1.0000   1.0000   0.0000   0.0000
     0.0000   0.0000

          k =-0.0283-0.3677 0.7071 ( 11047 PWs)   bands (ev):

   -12.4222 -12.4203 -12.2774 -12.2634 -12.2215 -12.2106 -12.1930 -12.1816
   -12.0452 -12.0433   0.1646   0.4368   5.8102   5.9768  11.1500  11.4026
    12.9433  13.1527

     occupation numbers 
     1.0000   1.0000   1.0000   1.0000   1.0000   1.0000   1.0000   1.0000
     1.0000   1.0000   1.0000   1.0000   1.0000   1.0000   0.0000   0.0000
     0.0000   0.0000

     the Fermi energy is     8.3050 ev

!    total energy              =    -233.44850558 Ry
     Harris-Foulkes estimate   =    -233.44850574 Ry
     estimated scf accuracy    <       0.00000044 Ry

     The total energy is the sum of the following terms:

     one-electron contribution =     -95.31645851 Ry
     hartree contribution      =      58.35648849 Ry
     xc contribution           =     -28.70692169 Ry
     ewald contribution        =    -167.78134157 Ry
     smearing contrib. (-TS)   =      -0.00027229 Ry

     convergence has been achieved in   5 iterations

     Writing output data file Sn.save
 
     init_run     :      4.90s CPU      5.80s WALL (       1 calls)
     electrons    :     94.91s CPU    102.51s WALL (       1 calls)

     Called by init_run:
     wfcinit      :      4.65s CPU      5.43s WALL (       1 calls)
     potinit      :      0.02s CPU      0.02s WALL (       1 calls)

     Called by electrons:
     c_bands      :     84.33s CPU     91.39s WALL (       5 calls)
     sum_band     :     10.51s CPU     10.99s WALL (       5 calls)
     v_of_rho     :      0.05s CPU      0.06s WALL (       6 calls)
     v_h          :      0.00s CPU      0.00s WALL (       6 calls)
     v_xc         :      0.05s CPU      0.06s WALL (       6 calls)
     mix_rho      :      0.00s CPU      0.01s WALL (       5 calls)

     Called by c_bands:
     init_us_2    :      0.90s CPU      1.06s WALL (    5005 calls)
     cegterg      :     78.98s CPU     85.57s WALL (    2275 calls)

     Called by sum_band:

     Called by *egterg:
     h_psi        :     68.09s CPU     74.27s WALL (    9844 calls)
     g_psi        :      0.44s CPU      0.44s WALL (    7114 calls)
     cdiaghg      :      6.25s CPU      6.34s WALL (    9389 calls)
     cegterg:over :      3.03s CPU      3.13s WALL (    7114 calls)
     cegterg:upda :      1.56s CPU      1.59s WALL (    7114 calls)
     cegterg:last :      0.83s CPU      0.84s WALL (    2972 calls)

     Called by h_psi:
     h_psi:vloc   :     64.38s CPU     70.26s WALL (    9844 calls)
     h_psi:vnl    :      3.38s CPU      3.63s WALL (    9844 calls)
     add_vuspsi   :      1.26s CPU      1.35s WALL (    9844 calls)

     General routines
     calbec       :      2.07s CPU      2.24s WALL (    9844 calls)
     fft          :      0.03s CPU      0.05s WALL (      65 calls)
     fftw         :     66.87s CPU     72.62s WALL (  325578 calls)
     davcio       :      0.04s CPU      0.44s WALL (     455 calls)
 
     Parallel routines
     fft_scatter  :     30.57s CPU     33.03s WALL (  325643 calls)
 
     PWSCF        :  1m40.79s CPU     1m49.89s WALL

 
   This run was terminated on:   0:53:48  21Feb2020            

=------------------------------------------------------------------------------=
   JOB DONE.
=------------------------------------------------------------------------------=
