
     Program PWSCF v.5.4.0 starts on 21Feb2020 at  0:52:47 

     This program is part of the open-source Quantum ESPRESSO suite
     for quantum simulation of materials; please cite
         "P. Giannozzi et al., J. Phys.:Condens. Matter 21 395502 (2009);
          URL http://www.quantum-espresso.org", 
     in publications or presentations arising from this work. More details at
     http://www.quantum-espresso.org/quote

     Parallel version (MPI & OpenMP), running on      16 processor cores
     Number of MPI processes:                16
     Threads/MPI process:                     1
     R & G space division:  proc/nbgrp/npool/nimage =      16
     Waiting for input...
     Reading input from standard input
Warning: card &IONS ignored
Warning: card / ignored
Warning: card &CELL ignored
Warning: card / ignored

     Current dimensions of program PWSCF are:
     Max number of different atomic species (ntypx) = 10
     Max number of k-points (npk) =  40000
     Max angular momentum in pseudopotentials (lmaxx) =  3

     Subspace diagonalization in iterative solution of the eigenvalue problem:
     a serial algorithm will be used

 
     Parallelization info
     --------------------
     sticks:   dense  smooth     PW     G-vecs:    dense   smooth      PW
     Min          80      80     23                 1931     1931     308
     Max          81      81     24                 1936     1936     311
     Sum        1285    1285    379                30923    30923    4957
 

     Title: 
     Sn                                                                         


     bravais-lattice index     =            0
     lattice parameter (alat)  =       8.8993  a.u.
     unit-cell volume          =     498.3785 (a.u.)^3
     number of atoms/cell      =            2
     number of atomic types    =            1
     number of electrons       =        28.00
     number of Kohn-Sham states=           18
     kinetic-energy cutoff     =      60.0000  Ry
     charge density cutoff     =     240.0000  Ry
     convergence threshold     =      1.0E-06
     mixing beta               =       0.7000
     number of iterations used =            8  plain     mixing
     Exchange-correlation      = PBE ( 1  4  3  4 0 0)

     celldm(1)=   8.899346  celldm(2)=   0.000000  celldm(3)=   0.000000
     celldm(4)=   0.000000  celldm(5)=   0.000000  celldm(6)=   0.000000

     crystal axes: (cart. coord. in units of alat)
               a(1) = (   0.000000   0.707107   0.707107 )  
               a(2) = (   0.707107   0.000000   0.707107 )  
               a(3) = (   0.707107   0.707107   0.000000 )  

     reciprocal axes: (cart. coord. in units 2 pi/alat)
               b(1) = ( -0.707107  0.707107  0.707107 )  
               b(2) = (  0.707107 -0.707107  0.707107 )  
               b(3) = (  0.707107  0.707107 -0.707107 )  


     PseudoPot. # 1 for Sn read from file:
     ../PseudopotentialDatabase/Sn_ONCV_PBE-1.0.upf
     MD5 check sum: 4ecdb67ea6112684f1b2ae1cab9d4ca6
     Pseudo is Norm-conserving, Zval = 14.0
     Generated using ONCVPSP code by D. R. Hamann
     Using radial grid of  602 points,  6 beta functions with: 
                l(1) =   0
                l(2) =   0
                l(3) =   1
                l(4) =   1
                l(5) =   2
                l(6) =   2

     atomic species   valence    mass     pseudopotential
        Sn            14.00   118.71000     Sn( 1.00)

     24 Sym. Ops. (no inversion) found
          (note: 24 additional sym.ops. were found but ignored
           their fractional translations are incommensurate with FFT grid)

                                    s                        frac. trans.

      isym =  1     identity                                     

 cryst.   s( 1) = (     1          0          0      )
                  (     0          1          0      )
                  (     0          0          1      )

 cart.    s( 1) = (  1.0000000  0.0000000  0.0000000 )
                  (  0.0000000  1.0000000  0.0000000 )
                  (  0.0000000  0.0000000  1.0000000 )


      isym =  2     180 deg rotation - cart. axis [0,0,1]        

 cryst.   s( 2) = (     0          1         -1      )
                  (     1          0         -1      )
                  (     0          0         -1      )

 cart.    s( 2) = ( -1.0000000  0.0000000  0.0000000 )
                  (  0.0000000 -1.0000000  0.0000000 )
                  (  0.0000000  0.0000000  1.0000000 )


      isym =  3     180 deg rotation - cart. axis [0,1,0]        

 cryst.   s( 3) = (     0         -1          1      )
                  (     0         -1          0      )
                  (     1         -1          0      )

 cart.    s( 3) = ( -1.0000000  0.0000000  0.0000000 )
                  (  0.0000000  1.0000000  0.0000000 )
                  (  0.0000000  0.0000000 -1.0000000 )


      isym =  4     180 deg rotation - cart. axis [1,0,0]        

 cryst.   s( 4) = (    -1          0          0      )
                  (    -1          0          1      )
                  (    -1          1          0      )

 cart.    s( 4) = (  1.0000000  0.0000000  0.0000000 )
                  (  0.0000000 -1.0000000  0.0000000 )
                  (  0.0000000  0.0000000 -1.0000000 )


      isym =  5     120 deg rotation - cart. axis [-1,-1,-1]     

 cryst.   s( 5) = (     0          0          1      )
                  (     1          0          0      )
                  (     0          1          0      )

 cart.    s( 5) = (  0.0000000  1.0000000  0.0000000 )
                  (  0.0000000  0.0000000  1.0000000 )
                  (  1.0000000  0.0000000  0.0000000 )


      isym =  6     120 deg rotation - cart. axis [-1,1,1]       

 cryst.   s( 6) = (     1         -1          0      )
                  (     0         -1          1      )
                  (     0         -1          0      )

 cart.    s( 6) = (  0.0000000 -1.0000000  0.0000000 )
                  (  0.0000000  0.0000000  1.0000000 )
                  ( -1.0000000  0.0000000  0.0000000 )


      isym =  7     120 deg rotation - cart. axis [1,1,-1]       

 cryst.   s( 7) = (    -1          1          0      )
                  (    -1          0          0      )
                  (    -1          0          1      )

 cart.    s( 7) = (  0.0000000  1.0000000  0.0000000 )
                  (  0.0000000  0.0000000 -1.0000000 )
                  ( -1.0000000  0.0000000  0.0000000 )


      isym =  8     120 deg rotation - cart. axis [1,-1,1]       

 cryst.   s( 8) = (     0          0         -1      )
                  (     0          1         -1      )
                  (     1          0         -1      )

 cart.    s( 8) = (  0.0000000 -1.0000000  0.0000000 )
                  (  0.0000000  0.0000000 -1.0000000 )
                  (  1.0000000  0.0000000  0.0000000 )


      isym =  9     120 deg rotation - cart. axis [1,1,1]        

 cryst.   s( 9) = (     0          1          0      )
                  (     0          0          1      )
                  (     1          0          0      )

 cart.    s( 9) = (  0.0000000  0.0000000  1.0000000 )
                  (  1.0000000  0.0000000  0.0000000 )
                  (  0.0000000  1.0000000  0.0000000 )


      isym = 10     120 deg rotation - cart. axis [-1,1,-1]      

 cryst.   s(10) = (    -1          0          1      )
                  (    -1          1          0      )
                  (    -1          0          0      )

 cart.    s(10) = (  0.0000000  0.0000000  1.0000000 )
                  ( -1.0000000  0.0000000  0.0000000 )
                  (  0.0000000 -1.0000000  0.0000000 )


      isym = 11     120 deg rotation - cart. axis [1,-1,-1]      

 cryst.   s(11) = (     1          0         -1      )
                  (     0          0         -1      )
                  (     0          1         -1      )

 cart.    s(11) = (  0.0000000  0.0000000 -1.0000000 )
                  ( -1.0000000  0.0000000  0.0000000 )
                  (  0.0000000  1.0000000  0.0000000 )


      isym = 12     120 deg rotation - cart. axis [-1,-1,1]      

 cryst.   s(12) = (     0         -1          0      )
                  (     1         -1          0      )
                  (     0         -1          1      )

 cart.    s(12) = (  0.0000000  0.0000000 -1.0000000 )
                  (  1.0000000  0.0000000  0.0000000 )
                  (  0.0000000 -1.0000000  0.0000000 )


      isym = 13     inv. 180 deg rotation - cart. axis [1,1,0]   

 cryst.   s(13) = (     1          0         -1      )
                  (     0          1         -1      )
                  (     0          0         -1      )

 cart.    s(13) = (  0.0000000 -1.0000000  0.0000000 )
                  ( -1.0000000  0.0000000  0.0000000 )
                  (  0.0000000  0.0000000  1.0000000 )


      isym = 14     inv. 180 deg rotation - cart. axis [1,-1,0]  

 cryst.   s(14) = (     0          1          0      )
                  (     1          0          0      )
                  (     0          0          1      )

 cart.    s(14) = (  0.0000000  1.0000000  0.0000000 )
                  (  1.0000000  0.0000000  0.0000000 )
                  (  0.0000000  0.0000000  1.0000000 )


      isym = 15     inv.  90 deg rotation - cart. axis [0,0,-1]  

 cryst.   s(15) = (     0         -1          0      )
                  (     0         -1          1      )
                  (     1         -1          0      )

 cart.    s(15) = (  0.0000000 -1.0000000  0.0000000 )
                  (  1.0000000  0.0000000  0.0000000 )
                  (  0.0000000  0.0000000 -1.0000000 )


      isym = 16     inv.  90 deg rotation - cart. axis [0,0,1]   

 cryst.   s(16) = (    -1          0          1      )
                  (    -1          0          0      )
                  (    -1          1          0      )

 cart.    s(16) = (  0.0000000  1.0000000  0.0000000 )
                  ( -1.0000000  0.0000000  0.0000000 )
                  (  0.0000000  0.0000000 -1.0000000 )


      isym = 17     inv. 180 deg rotation - cart. axis [1,0,1]   

 cryst.   s(17) = (     1         -1          0      )
                  (     0         -1          0      )
                  (     0         -1          1      )

 cart.    s(17) = (  0.0000000  0.0000000 -1.0000000 )
                  (  0.0000000  1.0000000  0.0000000 )
                  ( -1.0000000  0.0000000  0.0000000 )


      isym = 18     inv. 180 deg rotation - cart. axis [-1,0,1]  

 cryst.   s(18) = (     0          0          1      )
                  (     0          1          0      )
                  (     1          0          0      )

 cart.    s(18) = (  0.0000000  0.0000000  1.0000000 )
                  (  0.0000000  1.0000000  0.0000000 )
                  (  1.0000000  0.0000000  0.0000000 )


      isym = 19     inv.  90 deg rotation - cart. axis [0,1,0]   

 cryst.   s(19) = (     0          0         -1      )
                  (     1          0         -1      )
                  (     0          1         -1      )

 cart.    s(19) = (  0.0000000  0.0000000 -1.0000000 )
                  (  0.0000000 -1.0000000  0.0000000 )
                  (  1.0000000  0.0000000  0.0000000 )


      isym = 20     inv.  90 deg rotation - cart. axis [0,-1,0]  

 cryst.   s(20) = (    -1          1          0      )
                  (    -1          0          1      )
                  (    -1          0          0      )

 cart.    s(20) = (  0.0000000  0.0000000  1.0000000 )
                  (  0.0000000 -1.0000000  0.0000000 )
                  ( -1.0000000  0.0000000  0.0000000 )


      isym = 21     inv. 180 deg rotation - cart. axis [0,1,1]   

 cryst.   s(21) = (    -1          0          0      )
                  (    -1          1          0      )
                  (    -1          0          1      )

 cart.    s(21) = (  1.0000000  0.0000000  0.0000000 )
                  (  0.0000000  0.0000000 -1.0000000 )
                  (  0.0000000 -1.0000000  0.0000000 )


      isym = 22     inv. 180 deg rotation - cart. axis [0,1,-1]  

 cryst.   s(22) = (     1          0          0      )
                  (     0          0          1      )
                  (     0          1          0      )

 cart.    s(22) = (  1.0000000  0.0000000  0.0000000 )
                  (  0.0000000  0.0000000  1.0000000 )
                  (  0.0000000  1.0000000  0.0000000 )


      isym = 23     inv.  90 deg rotation - cart. axis [-1,0,0]  

 cryst.   s(23) = (     0          1         -1      )
                  (     0          0         -1      )
                  (     1          0         -1      )

 cart.    s(23) = ( -1.0000000  0.0000000  0.0000000 )
                  (  0.0000000  0.0000000 -1.0000000 )
                  (  0.0000000  1.0000000  0.0000000 )


      isym = 24     inv.  90 deg rotation - cart. axis [1,0,0]   

 cryst.   s(24) = (     0         -1          1      )
                  (     1         -1          0      )
                  (     0         -1          0      )

 cart.    s(24) = ( -1.0000000  0.0000000  0.0000000 )
                  (  0.0000000  0.0000000  1.0000000 )
                  (  0.0000000 -1.0000000  0.0000000 )


   Cartesian axes

     site n.     atom                  positions (alat units)
         1           Sn  tau(   1) = (   0.0000000   0.0000000   0.0000000  )
         2           Sn  tau(   2) = (   0.3535534   0.3535534   0.3535534  )

   Crystallographic axes

     site n.     atom                  positions (cryst. coord.)
         1           Sn  tau(   1) = (  0.0000000  0.0000000  0.0000000  )
         2           Sn  tau(   2) = (  0.2500000  0.2500000  0.2500000  )

     number of k points=    47  gaussian smearing, width (Ry)=  0.0100
                       cart. coord. in units 2pi/alat
        k(    1) = (   0.0000000   0.0000000   0.0000000), wk =   0.0020000
        k(    2) = (   0.0707107   0.0707107  -0.0707107), wk =   0.0160000
        k(    3) = (   0.1414214   0.1414214  -0.1414214), wk =   0.0160000
        k(    4) = (   0.2121320   0.2121320  -0.2121320), wk =   0.0160000
        k(    5) = (   0.2828427   0.2828427  -0.2828427), wk =   0.0160000
        k(    6) = (  -0.3535534  -0.3535534   0.3535534), wk =   0.0080000
        k(    7) = (   0.1414214   0.0000000   0.0000000), wk =   0.0120000
        k(    8) = (   0.2121320   0.0707107  -0.0707107), wk =   0.0480000
        k(    9) = (   0.2828427   0.1414214  -0.1414214), wk =   0.0480000
        k(   10) = (   0.3535534   0.2121320  -0.2121320), wk =   0.0480000
        k(   11) = (  -0.2828427  -0.4242641   0.4242641), wk =   0.0480000
        k(   12) = (  -0.2121320  -0.3535534   0.3535534), wk =   0.0480000
        k(   13) = (  -0.1414214  -0.2828427   0.2828427), wk =   0.0480000
        k(   14) = (  -0.0707107  -0.2121320   0.2121320), wk =   0.0480000
        k(   15) = (   0.0000000  -0.1414214   0.1414214), wk =   0.0240000
        k(   16) = (   0.2828427   0.0000000   0.0000000), wk =   0.0120000
        k(   17) = (   0.3535534   0.0707107  -0.0707107), wk =   0.0480000
        k(   18) = (   0.4242641   0.1414214  -0.1414214), wk =   0.0480000
        k(   19) = (  -0.2121320  -0.4949747   0.4949747), wk =   0.0480000
        k(   20) = (  -0.1414214  -0.4242641   0.4242641), wk =   0.0480000
        k(   21) = (  -0.0707107  -0.3535534   0.3535534), wk =   0.0480000
        k(   22) = (   0.0000000  -0.2828427   0.2828427), wk =   0.0240000
        k(   23) = (   0.4242641   0.0000000   0.0000000), wk =   0.0120000
        k(   24) = (   0.4949747   0.0707107  -0.0707107), wk =   0.0480000
        k(   25) = (  -0.1414214  -0.5656854   0.5656854), wk =   0.0480000
        k(   26) = (  -0.0707107  -0.4949747   0.4949747), wk =   0.0480000
        k(   27) = (  -0.0000000  -0.4242641   0.4242641), wk =   0.0240000
        k(   28) = (   0.5656854   0.0000000   0.0000000), wk =   0.0120000
        k(   29) = (  -0.0707107  -0.6363961   0.6363961), wk =   0.0480000
        k(   30) = (   0.0000000  -0.5656854   0.5656854), wk =   0.0240000
        k(   31) = (  -0.7071068   0.0000000   0.0000000), wk =   0.0060000
        k(   32) = (   0.2828427   0.1414214   0.0000000), wk =   0.0480000
        k(   33) = (   0.3535534   0.2121320  -0.0707107), wk =   0.0960000
        k(   34) = (  -0.2828427  -0.4242641   0.5656854), wk =   0.0960000
        k(   35) = (  -0.2121320  -0.3535534   0.4949747), wk =   0.0480000
        k(   36) = (   0.4242641   0.1414214  -0.0000000), wk =   0.0480000
        k(   37) = (  -0.2121320  -0.4949747   0.6363961), wk =   0.0960000
        k(   38) = (  -0.1414214  -0.4242641   0.5656854), wk =   0.0960000
        k(   39) = (  -0.0707107  -0.3535534   0.4949747), wk =   0.0960000
        k(   40) = (   0.0000000  -0.2828427   0.4242641), wk =   0.0480000
        k(   41) = (  -0.1414214  -0.5656854   0.7071068), wk =   0.0480000
        k(   42) = (  -0.0707107  -0.4949747   0.6363961), wk =   0.0960000
        k(   43) = (  -0.0000000  -0.4242641   0.5656854), wk =   0.0480000
        k(   44) = (  -0.7071068   0.1414214   0.0000000), wk =   0.0240000
        k(   45) = (  -0.1414214  -0.4242641   0.7071068), wk =   0.0480000
        k(   46) = (  -0.0707107  -0.3535534   0.6363961), wk =   0.0480000
        k(   47) = (  -0.7071068   0.2828427   0.0000000), wk =   0.0240000

                       cryst. coord.
        k(    1) = (   0.0000000   0.0000000   0.0000000), wk =   0.0020000
        k(    2) = (   0.0000000   0.0000000   0.1000000), wk =   0.0160000
        k(    3) = (   0.0000000   0.0000000   0.2000000), wk =   0.0160000
        k(    4) = (   0.0000000   0.0000000   0.3000000), wk =   0.0160000
        k(    5) = (   0.0000000   0.0000000   0.4000000), wk =   0.0160000
        k(    6) = (   0.0000000   0.0000000  -0.5000000), wk =   0.0080000
        k(    7) = (   0.0000000   0.1000000   0.1000000), wk =   0.0120000
        k(    8) = (   0.0000000   0.1000000   0.2000000), wk =   0.0480000
        k(    9) = (   0.0000000   0.1000000   0.3000000), wk =   0.0480000
        k(   10) = (   0.0000000   0.1000000   0.4000000), wk =   0.0480000
        k(   11) = (   0.0000000   0.1000000  -0.5000000), wk =   0.0480000
        k(   12) = (   0.0000000   0.1000000  -0.4000000), wk =   0.0480000
        k(   13) = (   0.0000000   0.1000000  -0.3000000), wk =   0.0480000
        k(   14) = (   0.0000000   0.1000000  -0.2000000), wk =   0.0480000
        k(   15) = (   0.0000000   0.1000000  -0.1000000), wk =   0.0240000
        k(   16) = (   0.0000000   0.2000000   0.2000000), wk =   0.0120000
        k(   17) = (   0.0000000   0.2000000   0.3000000), wk =   0.0480000
        k(   18) = (   0.0000000   0.2000000   0.4000000), wk =   0.0480000
        k(   19) = (   0.0000000   0.2000000  -0.5000000), wk =   0.0480000
        k(   20) = (   0.0000000   0.2000000  -0.4000000), wk =   0.0480000
        k(   21) = (   0.0000000   0.2000000  -0.3000000), wk =   0.0480000
        k(   22) = (   0.0000000   0.2000000  -0.2000000), wk =   0.0240000
        k(   23) = (   0.0000000   0.3000000   0.3000000), wk =   0.0120000
        k(   24) = (   0.0000000   0.3000000   0.4000000), wk =   0.0480000
        k(   25) = (   0.0000000   0.3000000  -0.5000000), wk =   0.0480000
        k(   26) = (   0.0000000   0.3000000  -0.4000000), wk =   0.0480000
        k(   27) = (   0.0000000   0.3000000  -0.3000000), wk =   0.0240000
        k(   28) = (   0.0000000   0.4000000   0.4000000), wk =   0.0120000
        k(   29) = (   0.0000000   0.4000000  -0.5000000), wk =   0.0480000
        k(   30) = (   0.0000000   0.4000000  -0.4000000), wk =   0.0240000
        k(   31) = (   0.0000000  -0.5000000  -0.5000000), wk =   0.0060000
        k(   32) = (   0.1000000   0.2000000   0.3000000), wk =   0.0480000
        k(   33) = (   0.1000000   0.2000000   0.4000000), wk =   0.0960000
        k(   34) = (   0.1000000   0.2000000  -0.5000000), wk =   0.0960000
        k(   35) = (   0.1000000   0.2000000  -0.4000000), wk =   0.0480000
        k(   36) = (   0.1000000   0.3000000   0.4000000), wk =   0.0480000
        k(   37) = (   0.1000000   0.3000000  -0.5000000), wk =   0.0960000
        k(   38) = (   0.1000000   0.3000000  -0.4000000), wk =   0.0960000
        k(   39) = (   0.1000000   0.3000000  -0.3000000), wk =   0.0960000
        k(   40) = (   0.1000000   0.3000000  -0.2000000), wk =   0.0480000
        k(   41) = (   0.1000000   0.4000000  -0.5000000), wk =   0.0480000
        k(   42) = (   0.1000000   0.4000000  -0.4000000), wk =   0.0960000
        k(   43) = (   0.1000000   0.4000000  -0.3000000), wk =   0.0480000
        k(   44) = (   0.1000000  -0.5000000  -0.4000000), wk =   0.0240000
        k(   45) = (   0.2000000   0.4000000  -0.4000000), wk =   0.0480000
        k(   46) = (   0.2000000   0.4000000  -0.3000000), wk =   0.0480000
        k(   47) = (   0.2000000  -0.5000000  -0.3000000), wk =   0.0240000

     Dense  grid:    30923 G-vectors     FFT dimensions: (  45,  45,  45)

     Largest allocated arrays     est. size (Mb)     dimensions
        Kohn-Sham Wavefunctions         0.07 Mb     (     252,   18)
        NL pseudopotentials             0.14 Mb     (     252,   36)
        Each V/rho on FFT grid          0.09 Mb     (    6075)
        Each G-vector array             0.01 Mb     (    1932)
        G-vector shells                 0.00 Mb     (     313)
     Largest temporary arrays     est. size (Mb)     dimensions
        Auxiliary wavefunctions         0.28 Mb     (     252,   72)
        Each subspace H/S matrix        0.08 Mb     (      72,   72)
        Each <psi_i|beta_j> matrix      0.01 Mb     (      36,   18)
        Arrays for rho mixing           0.74 Mb     (    6075,    8)

     Initial potential from superposition of free atoms

     starting charge   27.82674, renormalised to   28.00000
     Starting wfc are random

     total cpu time spent up to now is        0.8 secs

     Self-consistent Calculation

     iteration #  1     ecut=    60.00 Ry     beta=0.70
     Davidson diagonalization with overlap
     ethr =  1.00E-02,  avg # of iterations =  7.9

     Threshold (ethr) on eigenvalues was too large:
     Diagonalizing with lowered threshold

     Davidson diagonalization with overlap
     ethr =  1.14E-04,  avg # of iterations =  6.0

     total cpu time spent up to now is        7.3 secs

     total energy              =    -256.21665003 Ry
     Harris-Foulkes estimate   =    -256.22951419 Ry
     estimated scf accuracy    <       0.03188701 Ry

     iteration #  2     ecut=    60.00 Ry     beta=0.70
     Davidson diagonalization with overlap
     ethr =  1.14E-04,  avg # of iterations =  2.1

     total cpu time spent up to now is        8.9 secs

     total energy              =    -256.22110203 Ry
     Harris-Foulkes estimate   =    -256.22134800 Ry
     estimated scf accuracy    <       0.00183746 Ry

     iteration #  3     ecut=    60.00 Ry     beta=0.70
     Davidson diagonalization with overlap
     ethr =  6.56E-06,  avg # of iterations =  2.2

     total cpu time spent up to now is       10.3 secs

     total energy              =    -256.22127347 Ry
     Harris-Foulkes estimate   =    -256.22125547 Ry
     estimated scf accuracy    <       0.00011034 Ry

     iteration #  4     ecut=    60.00 Ry     beta=0.70
     Davidson diagonalization with overlap
     ethr =  3.94E-07,  avg # of iterations =  2.8

     total cpu time spent up to now is       11.8 secs

     End of self-consistent calculation

          k = 0.0000 0.0000 0.0000 (  3839 PWs)   bands (ev):

   -14.0570 -14.0570 -14.0570 -14.0077 -14.0077 -13.7576 -13.7576 -13.7576
   -13.7565 -13.7565  -2.5785   6.3609   7.6166   7.6166   7.6166   9.4226
     9.4243   9.6829

     occupation numbers 
     1.0000   1.0000   1.0000   1.0000   1.0000   1.0000   1.0000   1.0000
     1.0000   1.0000   1.0000   1.0000   0.0933   0.0933   0.0933   0.0000
     0.0000   0.0000

          k = 0.0707 0.0707-0.0707 (  3876 PWs)   bands (ev):

   -14.0630 -14.0630 -14.0549 -13.9995 -13.9995 -13.7742 -13.7742 -13.7601
   -13.7413 -13.7413  -2.4893   5.5138   7.4449   7.4449   7.9125   9.4223
     9.4239   9.9085

     occupation numbers 
     1.0000   1.0000   1.0000   1.0000   1.0000   1.0000   1.0000   1.0000
     1.0000   1.0000   1.0000   1.0000   0.6786   0.6786   0.0000   0.0000
     0.0000   0.0000

          k = 0.1414 0.1414-0.1414 (  3897 PWs)   bands (ev):

   -14.0731 -14.0731 -14.0494 -13.9838 -13.9838 -13.7902 -13.7902 -13.7667
   -13.7288 -13.7288  -2.2280   4.1886   7.1071   7.1071   7.8475   9.4220
     9.4238  10.3413

     occupation numbers 
     1.0000   1.0000   1.0000   1.0000   1.0000   1.0000   1.0000   1.0000
     1.0000   1.0000   1.0000   1.0000   1.0000   1.0000   0.0001   0.0000
     0.0000   0.0000

          k = 0.2121 0.2121-0.2121 (  3891 PWs)   bands (ev):

   -14.0809 -14.0809 -14.0423 -13.9699 -13.9699 -13.8022 -13.8022 -13.7751
   -13.7203 -13.7203  -1.8212   2.9303   6.7994   6.7994   7.6162   9.4221
     9.4239  10.6390

     occupation numbers 
     1.0000   1.0000   1.0000   1.0000   1.0000   1.0000   1.0000   1.0000
     1.0000   1.0000   1.0000   1.0000   1.0000   1.0000   0.0939   0.0000
     0.0000   0.0000

          k = 0.2828 0.2828-0.2828 (  3882 PWs)   bands (ev):

   -14.0851 -14.0851 -14.0364 -13.9616 -13.9616 -13.8088 -13.8088 -13.7822
   -13.7157 -13.7157  -1.3571   1.9311   6.5979   6.5979   7.4425   9.4222
     9.4239  10.7233

     occupation numbers 
     1.0000   1.0000   1.0000   1.0000   1.0000   1.0000   1.0000   1.0000
     1.0000   1.0000   1.0000   1.0000   1.0000   1.0000   0.6876   0.0000
     0.0000   0.0000

          k =-0.3536-0.3536 0.3536 (  3852 PWs)   bands (ev):

   -14.0864 -14.0864 -14.0340 -13.9591 -13.9591 -13.8107 -13.8107 -13.7850
   -13.7143 -13.7143  -1.1084   1.5007   6.5287   6.5287   7.3811   9.4226
     9.4242  10.7272

     occupation numbers 
     1.0000   1.0000   1.0000   1.0000   1.0000   1.0000   1.0000   1.0000
     1.0000   1.0000   1.0000   1.0000   1.0000   1.0000   0.8701   0.0000
     0.0000   0.0000

          k = 0.1414 0.0000 0.0000 (  3871 PWs)   bands (ev):

   -14.0616 -14.0616 -14.0613 -14.0014 -13.9910 -13.7915 -13.7625 -13.7513
   -13.7513 -13.7371  -2.4592   5.3964   7.1618   7.1618   8.5202   9.3507
     9.4232   9.4247

     occupation numbers 
     1.0000   1.0000   1.0000   1.0000   1.0000   1.0000   1.0000   1.0000
     1.0000   1.0000   1.0000   1.0000   0.9997   0.9997   0.0000   0.0000
     0.0000   0.0000

          k = 0.2121 0.0707-0.0707 (  3889 PWs)   bands (ev):

   -14.0740 -14.0692 -14.0544 -13.9902 -13.9739 -13.8108 -13.7766 -13.7540
   -13.7385 -13.7266  -2.2537   4.4165   6.7846   6.8017   8.7484   9.4195
     9.4239   9.4659

     occupation numbers 
     1.0000   1.0000   1.0000   1.0000   1.0000   1.0000   1.0000   1.0000
     1.0000   1.0000   1.0000   1.0000   1.0000   1.0000   0.0000   0.0000
     0.0000   0.0000

          k = 0.2828 0.1414-0.1414 (  3890 PWs)   bands (ev):

   -14.0854 -14.0778 -14.0431 -13.9755 -13.9583 -13.8247 -13.7919 -13.7665
   -13.7266 -13.7149  -1.8902   3.2334   6.3593   6.5168   8.5491   9.4222
     9.4240  10.0089

     occupation numbers 
     1.0000   1.0000   1.0000   1.0000   1.0000   1.0000   1.0000   1.0000
     1.0000   1.0000   1.0000   1.0000   1.0000   1.0000   0.0000   0.0000
     0.0000   0.0000

          k = 0.3536 0.2121-0.2121 (  3898 PWs)   bands (ev):

   -14.0931 -14.0842 -14.0309 -13.9628 -13.9502 -13.8291 -13.8049 -13.7813
   -13.7179 -13.7070  -1.4266   2.1758   6.0075   6.3647   8.3288   9.4221
     9.4239  10.3913

     occupation numbers 
     1.0000   1.0000   1.0000   1.0000   1.0000   1.0000   1.0000   1.0000
     1.0000   1.0000   1.0000   1.0000   1.0000   1.0000   0.0000   0.0000
     0.0000   0.0000

          k =-0.2828-0.4243 0.4243 (  3915 PWs)   bands (ev):

   -14.0960 -14.0881 -14.0225 -13.9537 -13.9514 -13.8229 -13.8151 -13.7932
   -13.7122 -13.7041  -1.0574   1.5252   5.7888   6.3628   8.1975   9.4220
     9.4237  10.5612

     occupation numbers 
     1.0000   1.0000   1.0000   1.0000   1.0000   1.0000   1.0000   1.0000
     1.0000   1.0000   1.0000   1.0000   1.0000   1.0000   0.0000   0.0000
     0.0000   0.0000

          k =-0.2121-0.3536 0.3536 (  3908 PWs)   bands (ev):

   -14.0943 -14.0895 -14.0221 -13.9585 -13.9497 -13.8213 -13.8109 -13.7967
   -13.7098 -13.7069  -1.1487   1.6746   5.7275   6.5079   8.1813   9.4221
     9.4238  10.7010

     occupation numbers 
     1.0000   1.0000   1.0000   1.0000   1.0000   1.0000   1.0000   1.0000
     1.0000   1.0000   1.0000   1.0000   1.0000   1.0000   0.0000   0.0000
     0.0000   0.0000

          k =-0.1414-0.2828 0.2828 (  3903 PWs)   bands (ev):

   -14.0880 -14.0877 -14.0302 -13.9684 -13.9537 -13.8201 -13.8035 -13.7841
   -13.7153 -13.7113  -1.5875   2.5041   5.8413   6.7790   8.2713   9.4221
     9.4239  10.6945

     occupation numbers 
     1.0000   1.0000   1.0000   1.0000   1.0000   1.0000   1.0000   1.0000
     1.0000   1.0000   1.0000   1.0000   1.0000   1.0000   0.0000   0.0000
     0.0000   0.0000

          k =-0.0707-0.2121 0.2121 (  3910 PWs)   bands (ev):

   -14.0818 -14.0779 -14.0423 -13.9803 -13.9668 -13.8098 -13.7952 -13.7660
   -13.7287 -13.7171  -2.0287   3.6185   6.1542   7.1248   8.4032   9.4220
     9.4238  10.3377

     occupation numbers 
     1.0000   1.0000   1.0000   1.0000   1.0000   1.0000   1.0000   1.0000
     1.0000   1.0000   1.0000   1.0000   1.0000   0.9999   0.0000   0.0000
     0.0000   0.0000

          k = 0.0000-0.1414 0.1414 (  3885 PWs)   bands (ev):

   -14.0724 -14.0666 -14.0525 -13.9930 -13.9847 -13.7930 -13.7828 -13.7521
   -13.7448 -13.7275  -2.3421   4.7442   6.7142   7.4212   8.3333   9.4222
     9.4240   9.9576

     occupation numbers 
     1.0000   1.0000   1.0000   1.0000   1.0000   1.0000   1.0000   1.0000
     1.0000   1.0000   1.0000   1.0000   1.0000   0.7613   0.0000   0.0000
     0.0000   0.0000

          k = 0.2828 0.0000 0.0000 (  3903 PWs)   bands (ev):

   -14.0730 -14.0730 -14.0618 -13.9832 -13.9542 -13.8368 -13.7799 -13.7355
   -13.7355 -13.7335  -2.1038   4.0265   6.4300   6.4300   8.8061   9.4052
     9.4228   9.4583

     occupation numbers 
     1.0000   1.0000   1.0000   1.0000   1.0000   1.0000   1.0000   1.0000
     1.0000   1.0000   1.0000   1.0000   1.0000   1.0000   0.0000   0.0000
     0.0000   0.0000

          k = 0.3536 0.0707-0.0707 (  3921 PWs)   bands (ev):

   -14.0858 -14.0803 -14.0491 -13.9691 -13.9345 -13.8579 -13.7945 -13.7514
   -13.7248 -13.7162  -1.7885   3.1841   5.9776   6.1388   8.8748   9.4189
     9.4229   9.5642

     occupation numbers 
     1.0000   1.0000   1.0000   1.0000   1.0000   1.0000   1.0000   1.0000
     1.0000   1.0000   1.0000   1.0000   1.0000   1.0000   0.0000   0.0000
     0.0000   0.0000

          k = 0.4243 0.1414-0.1414 (  3917 PWs)   bands (ev):

   -14.0990 -14.0871 -14.0288 -13.9536 -13.9228 -13.8681 -13.8110 -13.7743
   -13.7148 -13.7009  -1.3445   2.2516   5.4579   5.9892   8.8985   9.4218
     9.4236  10.1257

     occupation numbers 
     1.0000   1.0000   1.0000   1.0000   1.0000   1.0000   1.0000   1.0000
     1.0000   1.0000   1.0000   1.0000   1.0000   1.0000   0.0000   0.0000
     0.0000   0.0000

          k =-0.2121-0.4950 0.4950 (  3917 PWs)   bands (ev):

   -14.1074 -14.0920 -14.0100 -13.9397 -13.9251 -13.8626 -13.8269 -13.7955
   -13.7075 -13.6917  -0.8998   1.5150   5.0667   6.0015   8.8150   9.4220
     9.4237  10.7218

     occupation numbers 
     1.0000   1.0000   1.0000   1.0000   1.0000   1.0000   1.0000   1.0000
     1.0000   1.0000   1.0000   1.0000   1.0000   1.0000   0.0000   0.0000
     0.0000   0.0000

          k =-0.1414-0.4243 0.4243 (  3911 PWs)   bands (ev):

   -14.1090 -14.0946 -14.0008 -13.9393 -13.9305 -13.8433 -13.8389 -13.8077
   -13.7036 -13.6904  -0.8207   1.4002   4.8784   6.1725   8.8107   9.4221
     9.4239  10.9404

     occupation numbers 
     1.0000   1.0000   1.0000   1.0000   1.0000   1.0000   1.0000   1.0000
     1.0000   1.0000   1.0000   1.0000   1.0000   1.0000   0.0000   0.0000
     0.0000   0.0000

          k =-0.0707-0.3536 0.3536 (  3911 PWs)   bands (ev):

   -14.1033 -14.0941 -14.0061 -13.9573 -13.9322 -13.8403 -13.8153 -13.8096
   -13.7038 -13.6978  -1.2086   2.0020   4.9440   6.4756   8.8713   9.4221
     9.4241  11.1121

     occupation numbers 
     1.0000   1.0000   1.0000   1.0000   1.0000   1.0000   1.0000   1.0000
     1.0000   1.0000   1.0000   1.0000   1.0000   1.0000   0.0000   0.0000
     0.0000   0.0000

          k = 0.0000-0.2828 0.2828 (  3911 PWs)   bands (ev):

   -14.0914 -14.0897 -14.0239 -13.9707 -13.9468 -13.8286 -13.8050 -13.7855
   -13.7128 -13.7083  -1.6717   2.8470   5.3432   6.8433   8.8433   9.4220
     9.4243  10.7673

     occupation numbers 
     1.0000   1.0000   1.0000   1.0000   1.0000   1.0000   1.0000   1.0000
     1.0000   1.0000   1.0000   1.0000   1.0000   1.0000   0.0000   0.0000
     0.0000   0.0000

          k = 0.4243 0.0000 0.0000 (  3936 PWs)   bands (ev):

   -14.0859 -14.0859 -14.0499 -13.9549 -13.9086 -13.8879 -13.8073 -13.7466
   -13.7172 -13.7172  -1.5203   2.6786   5.8264   5.8264   8.4163   9.3728
     9.4224   9.4308

     occupation numbers 
     1.0000   1.0000   1.0000   1.0000   1.0000   1.0000   1.0000   1.0000
     1.0000   1.0000   1.0000   1.0000   1.0000   1.0000   0.0000   0.0000
     0.0000   0.0000

          k = 0.4950 0.0707-0.0707 (  3927 PWs)   bands (ev):

   -14.0969 -14.0915 -14.0311 -13.9379 -13.9085 -13.8887 -13.8245 -13.7679
   -13.7089 -13.7029  -1.1070   1.9641   5.3957   5.6526   8.5756   9.3541
     9.4226   9.4278

     occupation numbers 
     1.0000   1.0000   1.0000   1.0000   1.0000   1.0000   1.0000   1.0000
     1.0000   1.0000   1.0000   1.0000   1.0000   1.0000   0.0000   0.0000
     0.0000   0.0000

          k =-0.1414-0.5657 0.5657 (  3923 PWs)   bands (ev):

   -14.1094 -14.0958 -14.0052 -13.9209 -13.9138 -13.8820 -13.8430 -13.7955
   -13.7026 -13.6888  -0.6262   1.2850   4.8542   5.6442   8.6894   9.4217
     9.4234  10.1724

     occupation numbers 
     1.0000   1.0000   1.0000   1.0000   1.0000   1.0000   1.0000   1.0000
     1.0000   1.0000   1.0000   1.0000   1.0000   1.0000   0.0000   0.0000
     0.0000   0.0000

          k =-0.0707-0.4950 0.4950 (  3925 PWs)   bands (ev):

   -14.1161 -14.0981 -13.9899 -13.9082 -13.9033 -13.8901 -13.8584 -13.8114
   -13.6993 -13.6818  -0.3996   1.0095   4.5030   5.8018   8.7690   9.4219
     9.4235  11.4082

     occupation numbers 
     1.0000   1.0000   1.0000   1.0000   1.0000   1.0000   1.0000   1.0000
     1.0000   1.0000   1.0000   1.0000   1.0000   1.0000   0.0000   0.0000
     0.0000   0.0000

          k =-0.0000-0.4243 0.4243 (  3917 PWs)   bands (ev):

   -14.1141 -14.0977 -13.9905 -13.9318 -13.9126 -13.8571 -13.8559 -13.8134
   -13.6996 -13.6848  -0.7398   1.4214   4.4961   6.1009   8.9046   9.4220
     9.4239  12.0181

     occupation numbers 
     1.0000   1.0000   1.0000   1.0000   1.0000   1.0000   1.0000   1.0000
     1.0000   1.0000   1.0000   1.0000   1.0000   1.0000   0.0000   0.0000
     0.0000   0.0000

          k = 0.5657 0.0000 0.0000 (  3940 PWs)   bands (ev):

   -14.0955 -14.0955 -14.0244 -13.9396 -13.9195 -13.8601 -13.8419 -13.7745
   -13.7031 -13.7031  -0.7234   1.4107   5.4443   5.4443   8.2827   8.8444
     9.4220   9.4235

     occupation numbers 
     1.0000   1.0000   1.0000   1.0000   1.0000   1.0000   1.0000   1.0000
     1.0000   1.0000   1.0000   1.0000   1.0000   1.0000   0.0000   0.0000
     0.0000   0.0000

          k =-0.0707-0.6364 0.6364 (  3917 PWs)   bands (ev):

   -14.1035 -14.0982 -14.0004 -13.9564 -13.9007 -13.8613 -13.8431 -13.7994
   -13.6991 -13.6939  -0.2332   0.8124   5.0965   5.3998   8.4758   8.9936
     9.4223   9.4238

     occupation numbers 
     1.0000   1.0000   1.0000   1.0000   1.0000   1.0000   1.0000   1.0000
     1.0000   1.0000   1.0000   1.0000   1.0000   1.0000   0.0000   0.0000
     0.0000   0.0000

          k = 0.0000-0.5657 0.5657 (  3905 PWs)   bands (ev):

   -14.1132 -14.0992 -13.9858 -13.9396 -13.8890 -13.8748 -13.8581 -13.8143
   -13.6977 -13.6840   0.0231   0.5541   4.6446   5.5253   8.5880   9.4219
     9.4235  10.0894

     occupation numbers 
     1.0000   1.0000   1.0000   1.0000   1.0000   1.0000   1.0000   1.0000
     1.0000   1.0000   1.0000   1.0000   1.0000   1.0000   0.0000   0.0000
     0.0000   0.0000

          k =-0.7071 0.0000 0.0000 (  3892 PWs)   bands (ev):

   -14.0990 -14.0990 -13.9866 -13.9865 -13.8808 -13.8803 -13.8138 -13.8137
   -13.6978 -13.6978   0.2640   0.2641   5.3141   5.3141   8.4311   8.4312
     9.4224   9.4239

     occupation numbers 
     1.0000   1.0000   1.0000   1.0000   1.0000   1.0000   1.0000   1.0000
     1.0000   1.0000   1.0000   1.0000   1.0000   1.0000   0.0000   0.0000
     0.0000   0.0000

          k = 0.2828 0.1414 0.0000 (  3913 PWs)   bands (ev):

   -14.0822 -14.0786 -14.0460 -13.9792 -13.9554 -13.8311 -13.7879 -13.7590
   -13.7287 -13.7175  -1.9943   3.6333   6.0059   6.7232   9.1194   9.4198
     9.4250   9.4751

     occupation numbers 
     1.0000   1.0000   1.0000   1.0000   1.0000   1.0000   1.0000   1.0000
     1.0000   1.0000   1.0000   1.0000   1.0000   1.0000   0.0000   0.0000
     0.0000   0.0000

          k = 0.3536 0.2121-0.0707 (  3894 PWs)   bands (ev):

   -14.0932 -14.0878 -14.0286 -13.9658 -13.9394 -13.8450 -13.8015 -13.7793
   -13.7145 -13.7070  -1.5887   2.6702   5.4858   6.4498   9.0622   9.4223
     9.4248  10.0462

     occupation numbers 
     1.0000   1.0000   1.0000   1.0000   1.0000   1.0000   1.0000   1.0000
     1.0000   1.0000   1.0000   1.0000   1.0000   1.0000   0.0000   0.0000
     0.0000   0.0000

          k =-0.2828-0.4243 0.5657 (  3917 PWs)   bands (ev):

   -14.1024 -14.0922 -14.0124 -13.9528 -13.9331 -13.8475 -13.8154 -13.7986
   -13.7074 -13.6976  -1.1195   1.7980   5.2137   6.2062   8.9305   9.4221
     9.4241  10.4257

     occupation numbers 
     1.0000   1.0000   1.0000   1.0000   1.0000   1.0000   1.0000   1.0000
     1.0000   1.0000   1.0000   1.0000   1.0000   1.0000   0.0000   0.0000
     0.0000   0.0000

          k =-0.2121-0.3536 0.4950 (  3910 PWs)   bands (ev):

   -14.1057 -14.0936 -14.0057 -13.9441 -13.9355 -13.8419 -13.8276 -13.8050
   -13.7054 -13.6938  -0.8613   1.3954   5.1306   6.1137   8.8788   9.4222
     9.4241  10.4785

     occupation numbers 
     1.0000   1.0000   1.0000   1.0000   1.0000   1.0000   1.0000   1.0000
     1.0000   1.0000   1.0000   1.0000   1.0000   1.0000   0.0000   0.0000
     0.0000   0.0000

          k = 0.4243 0.1414-0.0000 (  3921 PWs)   bands (ev):

   -14.0919 -14.0918 -14.0336 -13.9543 -13.9143 -13.8791 -13.8094 -13.7676
   -13.7105 -13.7082  -1.4262   2.4754   5.4491   5.9365   9.0690   9.4194
     9.4231   9.5786

     occupation numbers 
     1.0000   1.0000   1.0000   1.0000   1.0000   1.0000   1.0000   1.0000
     1.0000   1.0000   1.0000   1.0000   1.0000   1.0000   0.0000   0.0000
     0.0000   0.0000

          k =-0.2121-0.4950 0.6364 (  3918 PWs)   bands (ev):

   -14.1051 -14.0966 -14.0093 -13.9385 -13.9036 -13.8881 -13.8270 -13.7934
   -13.7026 -13.6940  -0.9571   1.7170   4.9909   5.7232   9.2468   9.4219
     9.4247  10.1782

     occupation numbers 
     1.0000   1.0000   1.0000   1.0000   1.0000   1.0000   1.0000   1.0000
     1.0000   1.0000   1.0000   1.0000   1.0000   1.0000   0.0000   0.0000
     0.0000   0.0000

          k =-0.1414-0.4243 0.5657 (  3909 PWs)   bands (ev):

   -14.1129 -14.0992 -13.9910 -13.9258 -13.9066 -13.8814 -13.8442 -13.8117
   -13.6989 -13.6853  -0.5709   1.1886   4.6925   5.6846   9.2662   9.4223
     9.4254  10.8341

     occupation numbers 
     1.0000   1.0000   1.0000   1.0000   1.0000   1.0000   1.0000   1.0000
     1.0000   1.0000   1.0000   1.0000   1.0000   1.0000   0.0000   0.0000
     0.0000   0.0000

          k =-0.0707-0.3536 0.4950 (  3903 PWs)   bands (ev):

   -14.1126 -14.0994 -13.9894 -13.9332 -13.9101 -13.8711 -13.8424 -13.8148
   -13.6983 -13.6862  -0.6949   1.3504   4.6225   5.8479   9.3500   9.4225
     9.4292  10.8499

     occupation numbers 
     1.0000   1.0000   1.0000   1.0000   1.0000   1.0000   1.0000   1.0000
     1.0000   1.0000   1.0000   1.0000   1.0000   1.0000   0.0000   0.0000
     0.0000   0.0000

          k = 0.0000-0.2828 0.4243 (  3917 PWs)   bands (ev):

   -14.1042 -14.0965 -14.0051 -13.9521 -13.9202 -13.8621 -13.8160 -13.8052
   -13.7015 -13.6966  -1.1550   1.9927   4.8640   6.1525   9.3921   9.4223
     9.4404  10.4721

     occupation numbers 
     1.0000   1.0000   1.0000   1.0000   1.0000   1.0000   1.0000   1.0000
     1.0000   1.0000   1.0000   1.0000   1.0000   1.0000   0.0000   0.0000
     0.0000   0.0000

          k =-0.1414-0.5657 0.7071 (  3940 PWs)   bands (ev):

   -14.1012 -14.1004 -14.0092 -13.9282 -13.9201 -13.8695 -13.8429 -13.7905
   -13.6977 -13.6972  -0.6578   1.3410   5.1392   5.3796   8.8933   9.2828
     9.4225   9.4251

     occupation numbers 
     1.0000   1.0000   1.0000   1.0000   1.0000   1.0000   1.0000   1.0000
     1.0000   1.0000   1.0000   1.0000   1.0000   1.0000   0.0000   0.0000
     0.0000   0.0000

          k =-0.0707-0.4950 0.6364 (  3923 PWs)   bands (ev):

   -14.1119 -14.1029 -13.9824 -13.9312 -13.9030 -13.8657 -13.8618 -13.8171
   -13.6945 -13.6855  -0.1892   0.7969   4.7291   5.3166   9.1130   9.4218
     9.4238  10.1495

     occupation numbers 
     1.0000   1.0000   1.0000   1.0000   1.0000   1.0000   1.0000   1.0000
     1.0000   1.0000   1.0000   1.0000   1.0000   1.0000   0.0000   0.0000
     0.0000   0.0000

          k =-0.0000-0.4243 0.5657 (  3920 PWs)   bands (ev):

   -14.1166 -14.1026 -13.9775 -13.9044 -13.9042 -13.8855 -13.8680 -13.8218
   -13.6945 -13.6810  -0.2347   0.8544   4.4771   5.5064   9.2545   9.4222
     9.4249  11.4276

     occupation numbers 
     1.0000   1.0000   1.0000   1.0000   1.0000   1.0000   1.0000   1.0000
     1.0000   1.0000   1.0000   1.0000   1.0000   1.0000   0.0000   0.0000
     0.0000   0.0000

          k =-0.7071 0.1414 0.0000 (  3914 PWs)   bands (ev):

   -14.1042 -14.1042 -13.9730 -13.9729 -13.8816 -13.8812 -13.8264 -13.8263
   -13.6928 -13.6927   0.2793   0.2794   5.1112   5.1112   8.9747   8.9747
     9.4225   9.4239

     occupation numbers 
     1.0000   1.0000   1.0000   1.0000   1.0000   1.0000   1.0000   1.0000
     1.0000   1.0000   1.0000   1.0000   1.0000   1.0000   0.0000   0.0000
     0.0000   0.0000

          k =-0.1414-0.4243 0.7071 (  3899 PWs)   bands (ev):

   -14.1115 -14.1050 -13.9814 -13.9211 -13.9056 -13.8845 -13.8490 -13.8193
   -13.6926 -13.6866  -0.4790   1.1403   4.6808   5.3633   9.4215   9.4231
    10.1155  10.2637

     occupation numbers 
     1.0000   1.0000   1.0000   1.0000   1.0000   1.0000   1.0000   1.0000
     1.0000   1.0000   1.0000   1.0000   1.0000   1.0000   0.0000   0.0000
     0.0000   0.0000

          k =-0.0707-0.3536 0.6364 (  3914 PWs)   bands (ev):

   -14.1150 -14.1071 -13.9667 -13.9149 -13.9040 -13.8803 -13.8643 -13.8311
   -13.6903 -13.6824  -0.1601   0.7849   4.5908   5.1995   9.4215   9.4230
    10.1574  10.7880

     occupation numbers 
     1.0000   1.0000   1.0000   1.0000   1.0000   1.0000   1.0000   1.0000
     1.0000   1.0000   1.0000   1.0000   1.0000   1.0000   0.0000   0.0000
     0.0000   0.0000

          k =-0.7071 0.2828 0.0000 (  3920 PWs)   bands (ev):

   -14.1114 -14.1114 -13.9473 -13.9472 -13.8855 -13.8850 -13.8482 -13.8480
   -13.6858 -13.6858   0.3046   0.3048   4.8439   4.8439   9.4214   9.4230
    10.2307  10.2308

     occupation numbers 
     1.0000   1.0000   1.0000   1.0000   1.0000   1.0000   1.0000   1.0000
     1.0000   1.0000   1.0000   1.0000   1.0000   1.0000   0.0000   0.0000
     0.0000   0.0000

     the Fermi energy is     7.4895 ev

!    total energy              =    -256.22128228 Ry
     Harris-Foulkes estimate   =    -256.22128195 Ry
     estimated scf accuracy    <       0.00000089 Ry

     The total energy is the sum of the following terms:

     one-electron contribution =    -136.18238898 Ry
     hartree contribution      =      79.21809253 Ry
     xc contribution           =     -31.47543211 Ry
     ewald contribution        =    -167.78134162 Ry
     smearing contrib. (-TS)   =      -0.00021210 Ry

     convergence has been achieved in   4 iterations

     Writing output data file Sn.save
 
     init_run     :      0.62s CPU      0.69s WALL (       1 calls)
     electrons    :     10.74s CPU     11.04s WALL (       1 calls)

     Called by init_run:
     wfcinit      :      0.44s CPU      0.45s WALL (       1 calls)
     potinit      :      0.01s CPU      0.01s WALL (       1 calls)

     Called by electrons:
     c_bands      :      9.84s CPU     10.09s WALL (       5 calls)
     sum_band     :      0.86s CPU      0.89s WALL (       5 calls)
     v_of_rho     :      0.03s CPU      0.04s WALL (       5 calls)
     v_h          :      0.00s CPU      0.00s WALL (       5 calls)
     v_xc         :      0.03s CPU      0.03s WALL (       5 calls)
     mix_rho      :      0.00s CPU      0.00s WALL (       5 calls)

     Called by c_bands:
     init_us_2    :      0.06s CPU      0.06s WALL (     517 calls)
     cegterg      :      9.45s CPU      9.67s WALL (     235 calls)

     Called by sum_band:

     Called by *egterg:
     h_psi        :      6.83s CPU      7.02s WALL (    1276 calls)
     g_psi        :      0.02s CPU      0.02s WALL (     994 calls)
     cdiaghg      :      1.16s CPU      1.17s WALL (    1182 calls)
     cegterg:over :      0.91s CPU      0.92s WALL (     994 calls)
     cegterg:upda :      0.16s CPU      0.16s WALL (     994 calls)
     cegterg:last :      0.09s CPU      0.09s WALL (     329 calls)

     Called by h_psi:
     h_psi:vloc   :      6.15s CPU      6.33s WALL (    1276 calls)
     h_psi:vnl    :      0.66s CPU      0.67s WALL (    1276 calls)
     add_vuspsi   :      0.15s CPU      0.16s WALL (    1276 calls)

     General routines
     calbec       :      0.50s CPU      0.51s WALL (    1276 calls)
     fft          :      0.04s CPU      0.04s WALL (      56 calls)
     fftw         :      6.49s CPU      6.69s WALL (   35268 calls)
     davcio       :      0.00s CPU      0.02s WALL (      47 calls)
 
     Parallel routines
     fft_scatter  :      3.44s CPU      3.55s WALL (   35324 calls)
 
     PWSCF        :    11.69s CPU        12.15s WALL

 
   This run was terminated on:   0:52:59  21Feb2020            

=------------------------------------------------------------------------------=
   JOB DONE.
=------------------------------------------------------------------------------=
